<event>
 6    1  0.4069520E-005  0.7663756E+02  0.7818608E-02  0.1378672E+00
          2   -1    0    0  502    0  0.00000000000E+00  0.00000000000E+00  0.24910979545E+03  0.24910979545E+03  0.00000000000E+00 0. -1.
          1   -1    0    0  501    0 -0.00000000000E+00 -0.00000000000E+00 -0.54872493952E+02  0.54872493952E+02  0.00000000000E+00 0. -1.
          2    1    1    2  501    0 -0.22496928591E+02 -0.11600066378E+01 -0.16043583689E+01  0.22583874273E+02  0.00000000000E+00 0. -1.
          1    1    1    2  502    0  0.80462673949E+01  0.28851327035E+02 -0.15001375952E+02  0.33498996569E+02  0.00000000000E+00 0. -1.
         22    1    1    2    0    0  0.12837574779E+02 -0.64837363976E+02  0.50169271390E+02  0.82979773954E+02  0.00000000000E+00 0. -1.
         22    1    1    2    0    0  0.16130864166E+01  0.37146043579E+02  0.16067376443E+03  0.16491964460E+03  0.00000000000E+00 0. -1.
</event>
<event>
 6    1  0.4069520E-005  0.7882794E+02  0.7818608E-02  0.1337129E+00
          2   -1    0    0  502    0  0.00000000000E+00  0.00000000000E+00  0.10847140749E+02  0.10847140749E+02  0.00000000000E+00 0.  1.
          1   -1    0    0  501    0 -0.00000000000E+00 -0.00000000000E+00 -0.73973320280E+03  0.73973320280E+03  0.00000000000E+00 0.  1.
          2    1    1    2  501    0  0.11233835451E+02  0.26076892258E+02 -0.18293230361E+03  0.18512274597E+03  0.00000000000E+00 0.  1.
          1    1    1    2  502    0 -0.21791305119E+02 -0.11291652700E+01 -0.81450983600E+02  0.84323180220E+02  0.00000000000E+00 0.  1.
         22    1    1    2    0    0  0.29144900071E+02 -0.69013338967E+02 -0.23315204155E+03  0.24489209999E+03  0.00000000000E+00 0.  1.
         22    1    1    2    0    0 -0.18587430403E+02  0.44065611978E+02 -0.23135073329E+03  0.23624231738E+03  0.00000000000E+00 0.  1.
</event>
<event>
 6    1  0.4069520E-005  0.7491981E+02  0.7818608E-02  0.1427262E+00
          2   -1    0    0  502    0  0.00000000000E+00  0.00000000000E+00  0.44154659239E+02  0.44154659239E+02  0.00000000000E+00 0.  1.
          1   -1    0    0  501    0 -0.00000000000E+00 -0.00000000000E+00 -0.12335401280E+04  0.12335401280E+04  0.00000000000E+00 0.  1.
          2    1    1    2  501    0  0.44881736150E+02 -0.11976905631E+00 -0.23166331615E+03  0.23597092328E+03  0.00000000000E+00 0.  1.
          1    1    1    2  502    0 -0.59561112534E+02  0.87482377990E+01 -0.90059256691E+03  0.90260236503E+03  0.00000000000E+00 0.  1.
         22    1    1    2    0    0  0.98174844476E+01 -0.27514197128E+02 -0.93442915928E+02  0.97902975346E+02  0.00000000000E+00 0.  1.
         22    1    1    2    0    0  0.48618919362E+01  0.18885728386E+02  0.36313330252E+02  0.41218523553E+02  0.00000000000E+00 0.  1.
</event>
<event>
 6    1  0.4069520E-005  0.5864338E+02  0.7818608E-02  0.1407573E+00
          2   -1    0    0  502    0  0.00000000000E+00  0.00000000000E+00  0.26922320871E+03  0.26922320871E+03  0.00000000000E+00 0. -1.
          1   -1    0    0  501    0 -0.00000000000E+00 -0.00000000000E+00 -0.51467264461E+02  0.51467264461E+02  0.00000000000E+00 0. -1.
          2    1    1    2  501    0 -0.33586998037E+02 -0.11146129692E+02  0.97006594347E+02  0.10325987600E+03  0.00000000000E+00 0. -1.
          1    1    1    2  502    0 -0.24631951912E+02 -0.18936742679E+02 -0.43754765320E+01  0.31376393565E+02  0.00000000000E+00 0. -1.
         22    1    1    2    0    0  0.71429819266E+02  0.40727045077E+02  0.27105115775E+02  0.86577125052E+02  0.00000000000E+00 0. -1.
         22    1    1    2    0    0 -0.13210869318E+02 -0.10644172706E+02  0.98019710663E+02  0.99477078562E+02  0.00000000000E+00 0. -1.
</event>
<event>
 6    1  0.4069520E-005  0.8188485E+02  0.7818608E-02  0.1429150E+00
          2   -1    0    0  502    0  0.00000000000E+00  0.00000000000E+00  0.10608577483E+03  0.10608577483E+03  0.00000000000E+00 0.  1.
          1   -1    0    0  501    0 -0.00000000000E+00 -0.00000000000E+00 -0.18102378842E+03  0.18102378842E+03  0.00000000000E+00 0.  1.
          2    1    1    2  501    0  0.21550297787E+02 -0.34713280901E+02 -0.18226699679E+02  0.44739689168E+02  0.00000000000E+00 0.  1.
          1    1    1    2  502    0 -0.31508540304E+02  0.66877248551E+02 -0.80227139842E+02  0.10909513487E+03  0.00000000000E+00 0.  1.
         22    1    1    2    0    0  0.13202824099E+02  0.60280404776E+01  0.70876332145E+02  0.72347123609E+02  0.00000000000E+00 0.  1.
         22    1    1    2    0    0 -0.32445815831E+01 -0.38192008127E+02 -0.47360506209E+02  0.60927615601E+02  0.00000000000E+00 0.  1.
</event>
<event>
 6    1  0.4069520E-005  0.3211824E+03  0.7818608E-02  0.1156633E+00
          2   -1    0    0  502    0  0.00000000000E+00  0.00000000000E+00  0.89813636536E+03  0.89813636536E+03  0.00000000000E+00 0. -1.
          1   -1    0    0  501    0 -0.00000000000E+00 -0.00000000000E+00 -0.30761457373E+03  0.30761457373E+03  0.00000000000E+00 0. -1.
          2    1    1    2  501    0  0.95602429262E+01 -0.28289116083E+03 -0.16732413861E+03  0.32881024084E+03  0.00000000000E+00 0. -1.
          1    1    1    2  502    0  0.43524147089E+02  0.29896599007E+03  0.55146310933E+03  0.62879772229E+03  0.00000000000E+00 0. -1.
         22    1    1    2    0    0 -0.37621097200E+02  0.16425535232E+02  0.20810029714E+03  0.21211053447E+03  0.00000000000E+00 0.  1.
         22    1    1    2    0    0 -0.15463292815E+02 -0.32500364472E+02 -0.17174762335E+01  0.36032441495E+02  0.00000000000E+00 0.  1.
</event>
<event>
 6    1  0.4069520E-005  0.3474154E+02  0.7818608E-02  0.1609599E+00
          2   -1    0    0  502    0  0.00000000000E+00  0.00000000000E+00  0.57912804143E+02  0.57912804143E+02  0.00000000000E+00 0.  1.
          1   -1    0    0  501    0 -0.00000000000E+00 -0.00000000000E+00 -0.29977693952E+03  0.29977693952E+03  0.00000000000E+00 0.  1.
          2    1    1    2  501    0  0.19961787885E+02  0.22820632350E+02 -0.68380502626E+02  0.74800717750E+02  0.00000000000E+00 0.  1.
          1    1    1    2  502    0 -0.14006136981E+02 -0.18412963245E+02 -0.15995474388E+03  0.16161908668E+03  0.00000000000E+00 0.  1.
         22    1    1    2    0    0 -0.17541396469E+01  0.11889457353E+02 -0.65524936923E+02  0.66617967252E+02  0.00000000000E+00 0.  1.
         22    1    1    2    0    0 -0.42015112572E+01 -0.16297126458E+02  0.51996048057E+02  0.54651971979E+02  0.00000000000E+00 0.  1.
</event>
<event>
 6    1  0.1064359E-004  0.9576591E+02  0.7818608E-02  0.1299402E+00
          2   -1    0    0  502    0  0.00000000000E+00  0.00000000000E+00  0.17249479955E+03  0.17249479955E+03  0.00000000000E+00 0. -1.
          1   -1    0    0  501    0 -0.00000000000E+00 -0.00000000000E+00 -0.97582462215E+03  0.97582462215E+03  0.00000000000E+00 0. -1.
          2    1    1    2  501    0  0.65047778723E+02 -0.45599693766E+02 -0.91651285841E+03  0.91994911012E+03  0.00000000000E+00 0. -1.
          1    1    1    2  502    0  0.33341899532E+01  0.32879396460E+02 -0.14584343467E+02  0.36123048163E+02  0.00000000000E+00 0. -1.
         22    1    1    2    0    0 -0.77869803712E+02  0.16320830220E+02  0.14888940486E+03  0.16881389370E+03  0.00000000000E+00 0. -1.
         22    1    1    2    0    0  0.94878350364E+01 -0.36005329138E+01 -0.21122025583E+02  0.23433369704E+02  0.00000000000E+00 0. -1.
</event>
<event>
 6    1  0.4069520E-005  0.1531297E+03  0.7818608E-02  0.1197795E+00
          2   -1    0    0  502    0  0.00000000000E+00  0.00000000000E+00  0.23976492611E+02  0.23976492611E+02  0.00000000000E+00 0. -1.
          1   -1    0    0  501    0 -0.00000000000E+00 -0.00000000000E+00 -0.16533969354E+04  0.16533969354E+04  0.00000000000E+00 0. -1.
          2    1    1    2  501    0  0.15674353622E+03 -0.77590931432E+01 -0.64496961268E+03  0.66378802411E+03  0.00000000000E+00 0. -1.
          1    1    1    2  502    0 -0.60870587831E+02 -0.12603857804E+02 -0.49497926756E+03  0.49886727795E+03  0.00000000000E+00 0. -1.
         22    1    1    2    0    0 -0.12572684406E+03  0.25494649591E+02 -0.41301003502E+03  0.43247486112E+03  0.00000000000E+00 0. -1.
         22    1    1    2    0    0  0.29853895670E+02 -0.51316986445E+01 -0.76461527554E+02  0.82243264852E+02  0.00000000000E+00 0.  1.
</event>
<event>
 6    1  0.4069520E-005  0.9740840E+02  0.7818608E-02  0.1287092E+00
          2   -1    0    0  502    0  0.00000000000E+00  0.00000000000E+00  0.15263871031E+03  0.15263871031E+03  0.00000000000E+00 0.  1.
          1   -1    0    0  501    0 -0.00000000000E+00 -0.00000000000E+00 -0.46991398717E+03  0.46991398717E+03  0.00000000000E+00 0.  1.
          2    1    1    2  501    0  0.37312331976E+02 -0.43556402234E+02  0.13499556622E+02  0.58920355753E+02  0.00000000000E+00 0.  1.
          1    1    1    2  502    0 -0.26831193341E+02 -0.19102822978E+02 -0.40644670252E+03  0.40777904896E+03  0.00000000000E+00 0.  1.
         22    1    1    2    0    0 -0.36438557181E+02  0.90542834315E+02  0.47977242853E+02  0.10875472002E+03  0.00000000000E+00 0.  1.
         22    1    1    2    0    0  0.25957418545E+02 -0.27883609103E+02  0.27694626192E+02  0.47098572739E+02  0.00000000000E+00 0.  1.
</event>
<event>
 6    1  0.4069520E-005  0.1289989E+03  0.7818608E-02  0.1274669E+00
          2   -1    0    0  502    0  0.00000000000E+00  0.00000000000E+00  0.40803205900E+03  0.40803205900E+03  0.00000000000E+00 0.  1.
          1   -1    0    0  501    0 -0.00000000000E+00 -0.00000000000E+00 -0.95470754630E+03  0.95470754630E+03  0.00000000000E+00 0.  1.
          2    1    1    2  501    0  0.31714058947E+02 -0.17272574097E+02  0.86680456641E+02  0.93902209315E+02  0.00000000000E+00 0.  1.
          1    1    1    2  502    0 -0.71222394363E+02  0.10301695975E+03 -0.92795160837E+03  0.93636494538E+03  0.00000000000E+00 0.  1.
         22    1    1    2    0    0 -0.34979166721E+02 -0.38303552167E+02  0.18272475913E+03  0.18994483887E+03  0.00000000000E+00 0. -1.
         22    1    1    2    0    0  0.74487502138E+02 -0.47440833483E+02  0.11187090530E+03  0.14252761174E+03  0.00000000000E+00 0.  1.
</event>
<event>
 6    1  0.4069520E-005  0.1046435E+03  0.7818608E-02  0.1313343E+00
          2   -1    0    0  502    0  0.00000000000E+00  0.00000000000E+00  0.47465486164E+03  0.47465486164E+03  0.00000000000E+00 0.  1.
          1   -1    0    0  501    0 -0.00000000000E+00 -0.00000000000E+00 -0.55456219710E+02  0.55456219710E+02  0.00000000000E+00 0.  1.
          2    1    1    2  501    0 -0.68963010144E+02 -0.35816532204E+02  0.99502751359E+02  0.12625180504E+03  0.00000000000E+00 0.  1.
          1    1    1    2  502    0  0.22110188636E+02  0.45757955080E+02 -0.51670146142E+01  0.51081786722E+02  0.00000000000E+00 0.  1.
         22    1    1    2    0    0  0.19986978849E+02 -0.48875341447E+02  0.46303721762E+02  0.70230427694E+02  0.00000000000E+00 0. -1.
         22    1    1    2    0    0  0.26865842659E+02  0.38933918571E+02  0.27855918342E+03  0.28254706190E+03  0.00000000000E+00 0.  1.
</event>
<event>
 6    1  0.4069520E-005  0.9449899E+02  0.7818608E-02  0.1352485E+00
          2   -1    0    0  502    0  0.00000000000E+00  0.00000000000E+00  0.19623172799E+03  0.19623172799E+03  0.00000000000E+00 0. -1.
          1   -1    0    0  501    0 -0.00000000000E+00 -0.00000000000E+00 -0.42805481608E+03  0.42805481608E+03  0.00000000000E+00 0.  1.
          2    1    1    2  501    0 -0.32573594014E+02  0.34665459626E+02  0.24431698045E+02  0.53475611146E+02  0.00000000000E+00 0. -1.
          1    1    1    2  502    0  0.33409405582E+02 -0.51796924399E+02 -0.38731954651E+03  0.39219324429E+03  0.00000000000E+00 0.  1.
         22    1    1    2    0    0  0.53708013393E+01 -0.31907019493E+02 -0.60043272219E+01  0.32908286880E+02  0.00000000000E+00 0.  1.
         22    1    1    2    0    0 -0.62066129080E+01  0.49038484266E+02  0.13706908760E+03  0.14570940175E+03  0.00000000000E+00 0. -1.
</event>
<event>
 6    1  0.4069520E-005  0.7626447E+02  0.7818608E-02  0.1342994E+00
          2   -1    0    0  502    0  0.00000000000E+00  0.00000000000E+00  0.42880756107E+02  0.42880756107E+02  0.00000000000E+00 0.  1.
          1   -1    0    0  501    0 -0.00000000000E+00 -0.00000000000E+00 -0.11657343228E+04  0.11657343228E+04  0.00000000000E+00 0. -1.
          2    1    1    2  501    0  0.19512342132E+02 -0.39631445343E+02 -0.95457533932E+02  0.10518328641E+03  0.00000000000E+00 0.  1.
          1    1    1    2  502    0 -0.43637215239E+02 -0.13571356150E+02 -0.93717943990E+03  0.93829296642E+03  0.00000000000E+00 0. -1.
         22    1    1    2    0    0  0.24018469094E+02  0.72990077458E+02 -0.42864357264E+01  0.76959806368E+02  0.00000000000E+00 0.  1.
         22    1    1    2    0    0  0.10640401253E+00 -0.19787275965E+02 -0.85930157168E+02  0.88179019743E+02  0.00000000000E+00 0.  1.
</event>
<event>
 6    1  0.4069520E-005  0.1772266E+03  0.7818608E-02  0.1255224E+00
          2   -1    0    0  502    0  0.00000000000E+00  0.00000000000E+00  0.11274864459E+03  0.11274864459E+03  0.00000000000E+00 0.  1.
          1   -1    0    0  501    0 -0.00000000000E+00 -0.00000000000E+00 -0.49497813686E+03  0.49497813686E+03  0.00000000000E+00 0.  1.
          2    1    1    2  501    0  0.15858223009E+02  0.13860899730E+02 -0.16778909670E+03  0.16910585073E+03  0.00000000000E+00 0.  1.
          1    1    1    2  502    0 -0.35860486524E+01  0.35342182144E+02 -0.28310575541E+03  0.28532577579E+03  0.00000000000E+00 0.  1.
         22    1    1    2    0    0  0.37488606301E+01  0.28984713186E+02  0.67410015503E+02  0.73472972885E+02  0.00000000000E+00 0. -1.
         22    1    1    2    0    0 -0.16021034987E+02 -0.78187795060E+02  0.12553443348E+01  0.79822182054E+02  0.00000000000E+00 0.  1.
</event>
<event>
 6    1  0.4069520E-005  0.2811835E+03  0.7818608E-02  0.1167748E+00
          2   -1    0    0  502    0  0.00000000000E+00  0.00000000000E+00  0.16315613263E+03  0.16315613263E+03  0.00000000000E+00 0. -1.
          1   -1    0    0  501    0 -0.00000000000E+00 -0.00000000000E+00 -0.70547306589E+03  0.70547306589E+03  0.00000000000E+00 0. -1.
          2    1    1    2  501    0 -0.52069790455E+02 -0.10729322718E+03 -0.13828561999E+03  0.18260890551E+03  0.00000000000E+00 0. -1.
          1    1    1    2  502    0  0.66352303369E+02  0.12055502249E+03 -0.50524732589E+03  0.52365160357E+03  0.00000000000E+00 0. -1.
         22    1    1    2    0    0 -0.24876616879E+02  0.40205318895E+02 -0.14765012825E+00  0.47279335183E+02  0.00000000000E+00 0. -1.
         22    1    1    2    0    0  0.10594103965E+02 -0.53467114200E+02  0.10136366274E+03  0.11508935426E+03  0.00000000000E+00 0. -1.
</event>
<event>
 6    1  0.4069520E-005  0.1254541E+03  0.7818608E-02  0.1239498E+00
          2   -1    0    0  502    0  0.00000000000E+00  0.00000000000E+00  0.12914594419E+03  0.12914594419E+03  0.00000000000E+00 0.  1.
          1   -1    0    0  501    0 -0.00000000000E+00 -0.00000000000E+00 -0.23304771371E+03  0.23304771371E+03  0.00000000000E+00 0.  1.
          2    1    1    2  501    0 -0.78058606368E+02  0.88018478346E+02 -0.94962802901E+02  0.15118972350E+03  0.00000000000E+00 0.  1.
          1    1    1    2  502    0  0.63805869145E+02 -0.14275526626E+02 -0.95449991439E+01  0.66076369501E+02  0.00000000000E+00 0.  1.
         22    1    1    2    0    0  0.10224198484E+02 -0.10670771020E+03  0.15892869812E+02  0.10836813628E+03  0.00000000000E+00 0.  1.
         22    1    1    2    0    0  0.40285387390E+01  0.32964758479E+02 -0.15286837294E+02  0.36559428612E+02  0.00000000000E+00 0.  1.
</event>
<event>
 6    1  0.4069520E-005  0.1834130E+03  0.7818608E-02  0.1303556E+00
          2   -1    0    0  502    0  0.00000000000E+00  0.00000000000E+00  0.43025281886E+02  0.43025281886E+02  0.00000000000E+00 0.  1.
          1   -1    0    0  501    0 -0.00000000000E+00 -0.00000000000E+00 -0.60685486505E+03  0.60685486505E+03  0.00000000000E+00 0.  1.
          2    1    1    2  501    0 -0.52316877055E+02 -0.58150094870E+02 -0.14052311026E+03  0.16082671941E+03  0.00000000000E+00 0.  1.
          1    1    1    2  502    0  0.27638404492E+02 -0.15309755522E+02  0.93953751048E+01  0.32962753076E+02  0.00000000000E+00 0.  1.
         22    1    1    2    0    0  0.36864613117E+01 -0.98283985466E+01  0.38412637605E+01  0.11177778056E+02  0.00000000000E+00 0.  1.
         22    1    1    2    0    0  0.20992011252E+02  0.83288248939E+02 -0.43654311176E+03  0.44491289639E+03  0.00000000000E+00 0.  1.
</event>
<event>
 6    1  0.4069520E-005  0.1068538E+03  0.7818608E-02  0.1295750E+00
          2   -1    0    0  502    0  0.00000000000E+00  0.00000000000E+00  0.78353303419E+02  0.78353303419E+02  0.00000000000E+00 0. -1.
          1   -1    0    0  501    0 -0.00000000000E+00 -0.00000000000E+00 -0.23477758381E+03  0.23477758381E+03  0.00000000000E+00 0. -1.
          2    1    1    2  501    0 -0.44947904138E+02 -0.48670802869E+02 -0.90197807650E+02  0.11191427810E+03  0.00000000000E+00 0. -1.
          1    1    1    2  502    0  0.29749797939E+02  0.22621716451E+02 -0.62356218724E+02  0.72698628228E+02  0.00000000000E+00 0. -1.
         22    1    1    2    0    0 -0.42703276183E+02  0.33328965273E+02 -0.32859361022E+02  0.63357141111E+02  0.00000000000E+00 0. -1.
         22    1    1    2    0    0  0.57901382382E+02 -0.72798788550E+01  0.28989107000E+02  0.65160839793E+02  0.00000000000E+00 0. -1.
</event>
<event>
 6    1  0.4069520E-005  0.5809602E+02  0.7818608E-02  0.1499468E+00
          2   -1    0    0  502    0  0.00000000000E+00  0.00000000000E+00  0.52611013438E+02  0.52611013438E+02  0.00000000000E+00 0. -1.
          1   -1    0    0  501    0 -0.00000000000E+00 -0.00000000000E+00 -0.39593250021E+03  0.39593250021E+03  0.00000000000E+00 0. -1.
          2    1    1    2  501    0  0.67054218900E+01  0.31060384402E+02 -0.20261700497E+03  0.20509354174E+03  0.00000000000E+00 0. -1.
          1    1    1    2  502    0 -0.31926295742E+02 -0.50380209850E+02 -0.87811705202E+02  0.10615248219E+03  0.00000000000E+00 0. -1.
         22    1    1    2    0    0  0.14555159119E+02 -0.21520932257E+01  0.39339046703E+02  0.42000532827E+02  0.00000000000E+00 0. -1.
         22    1    1    2    0    0  0.10665714733E+02  0.21471918674E+02 -0.92231823306E+02  0.95296956891E+02  0.00000000000E+00 0.  1.
</event>
<event>
 6    1  0.4069520E-005  0.7575134E+02  0.7818608E-02  0.1389197E+00
          2   -1    0    0  502    0  0.00000000000E+00  0.00000000000E+00  0.91898675244E+02  0.91898675244E+02  0.00000000000E+00 0. -1.
          1   -1    0    0  501    0 -0.00000000000E+00 -0.00000000000E+00 -0.17245251118E+04  0.17245251118E+04  0.00000000000E+00 0.  1.
          2    1    1    2  501    0  0.15030925664E+02 -0.18883200658E+02 -0.49348252670E+02  0.54934088097E+02  0.00000000000E+00 0. -1.
          1    1    1    2  502    0 -0.58754640074E+02  0.13247480473E+02 -0.16233328693E+04  0.16244498170E+04  0.00000000000E+00 0.  1.
         22    1    1    2    0    0 -0.92948651169E+01  0.32942198392E+02  0.64156689445E+02  0.72716323841E+02  0.00000000000E+00 0. -1.
         22    1    1    2    0    0  0.53018579527E+02 -0.27306478207E+02 -0.24102004038E+02  0.64323558093E+02  0.00000000000E+00 0. -1.
</event>
<event>
 6    1  0.4069520E-005  0.7327753E+02  0.7818608E-02  0.1354335E+00
          2   -1    0    0  502    0  0.00000000000E+00  0.00000000000E+00  0.14922865957E+03  0.14922865957E+03  0.00000000000E+00 0. -1.
          1   -1    0    0  501    0 -0.00000000000E+00 -0.00000000000E+00 -0.28177244962E+04  0.28177244962E+04  0.00000000000E+00 0. -1.
          2    1    1    2  501    0 -0.11009747440E+01  0.35187506554E+02 -0.12183961179E+02  0.37253478668E+02  0.00000000000E+00 0. -1.
          1    1    1    2  502    0 -0.51055636442E+02  0.15574181264E+02 -0.27555636665E+04  0.27560806144E+04  0.00000000000E+00 0. -1.
         22    1    1    2    0    0  0.39142064169E+02 -0.62341191295E+02  0.12349326210E+03  0.14376755929E+03  0.00000000000E+00 0. -1.
         22    1    1    2    0    0  0.13014547017E+02  0.11579503477E+02 -0.24241471077E+02  0.29851503393E+02  0.00000000000E+00 0. -1.
</event>
<event>
 6    1  0.4069520E-005  0.4673176E+03  0.7818608E-02  0.1148758E+00
          2   -1    0    0  502    0  0.00000000000E+00  0.00000000000E+00  0.95568624071E+02  0.95568624071E+02  0.00000000000E+00 0. -1.
          1   -1    0    0  501    0 -0.00000000000E+00 -0.00000000000E+00 -0.17454902938E+04  0.17454902938E+04  0.00000000000E+00 0. -1.
          2    1    1    2  501    0  0.72527157477E+02 -0.12935926410E+03 -0.98370337051E+03  0.99481974696E+03  0.00000000000E+00 0. -1.
          1    1    1    2  502    0  0.36345525441E+02  0.20593016527E+02 -0.64496678769E+03  0.64631820861E+03  0.00000000000E+00 0. -1.
         22    1    1    2    0    0 -0.94633310867E+02  0.10136722360E+03 -0.65124295437E+02  0.15320558541E+03  0.00000000000E+00 0. -1.
         22    1    1    2    0    0 -0.14239372051E+02  0.73990239735E+01  0.43872783900E+02  0.46715376904E+02  0.00000000000E+00 0. -1.
</event>
<event>
 6    1  0.4069520E-005  0.6830395E+02  0.7818608E-02  0.1422816E+00
          2   -1    0    0  502    0  0.00000000000E+00  0.00000000000E+00  0.71575160168E+02  0.71575160168E+02  0.00000000000E+00 0. -1.
          1   -1    0    0  501    0 -0.00000000000E+00 -0.00000000000E+00 -0.45705150569E+03  0.45705150569E+03  0.00000000000E+00 0.  1.
          2    1    1    2  501    0  0.28026017788E+02 -0.15974725877E+02 -0.95640311306E+02  0.10093422951E+03  0.00000000000E+00 0. -1.
          1    1    1    2  502    0 -0.59315500199E+02  0.11488052461E+02 -0.29317589383E+03  0.29933661426E+03  0.00000000000E+00 0.  1.
         22    1    1    2    0    0  0.33532326369E+02 -0.22964151711E+02 -0.52322156090E+02  0.66252375002E+02  0.00000000000E+00 0. -1.
         22    1    1    2    0    0 -0.22428439580E+01  0.27450825127E+02  0.55662015698E+02  0.62103447092E+02  0.00000000000E+00 0. -1.
</event>
<event>
 6    1  0.4069520E-005  0.1114925E+03  0.7818608E-02  0.1291294E+00
          2   -1    0    0  502    0  0.00000000000E+00  0.00000000000E+00  0.39092663128E+03  0.39092663128E+03  0.00000000000E+00 0. -1.
          1   -1    0    0  501    0 -0.00000000000E+00 -0.00000000000E+00 -0.44187106249E+04  0.44187106249E+04  0.00000000000E+00 0.  1.
          2    1    1    2  501    0  0.80171688271E+02 -0.28954139454E+02  0.91084522960E+02  0.12474867580E+03  0.00000000000E+00 0. -1.
          1    1    1    2  502    0 -0.87159375643E+02  0.29716375880E+02 -0.43882819370E+04  0.43892480196E+04  0.00000000000E+00 0.  1.
         22    1    1    2    0    0  0.31274965384E+02 -0.54137402154E+02  0.12465726292E+03  0.13945757409E+03  0.00000000000E+00 0. -1.
         22    1    1    2    0    0 -0.24287278013E+02  0.53375165728E+02  0.14475615746E+03  0.15618298663E+03  0.00000000000E+00 0. -1.
</event>
<event>
 6    1  0.4069520E-005  0.9490073E+02  0.7818608E-02  0.1313990E+00
          2   -1    0    0  502    0  0.00000000000E+00  0.00000000000E+00  0.37086274714E+03  0.37086274714E+03  0.00000000000E+00 0. -1.
          1   -1    0    0  501    0 -0.00000000000E+00 -0.00000000000E+00 -0.30282623220E+03  0.30282623220E+03  0.00000000000E+00 0.  1.
          2    1    1    2  501    0 -0.19838051391E+02 -0.78306442384E+01  0.51009576553E+02  0.55288734588E+02  0.00000000000E+00 0. -1.
          1    1    1    2  502    0 -0.93104922659E+02  0.18374506912E+02 -0.26898280419E+03  0.28523305923E+03  0.00000000000E+00 0.  1.
         22    1    1    2    0    0 -0.22903858437E+02  0.18861935719E+02  0.73235871463E+02  0.79018049959E+02  0.00000000000E+00 0. -1.
         22    1    1    2    0    0  0.13584683249E+03 -0.29405798393E+02  0.21277387111E+03  0.25414913556E+03  0.00000000000E+00 0. -1.
</event>
<event>
 6    1  0.4069520E-005  0.5747378E+02  0.7818608E-02  0.1452807E+00
          2   -1    0    0  502    0  0.00000000000E+00  0.00000000000E+00  0.95488278424E+02  0.95488278424E+02  0.00000000000E+00 0.  1.
          1   -1    0    0  501    0 -0.00000000000E+00 -0.00000000000E+00 -0.45424351028E+03  0.45424351028E+03  0.00000000000E+00 0.  1.
          2    1    1    2  501    0 -0.11859935392E+02  0.22038891735E+02 -0.24917498956E+03  0.25042872487E+03  0.00000000000E+00 0.  1.
          1    1    1    2  502    0  0.20452475358E+01 -0.59934089988E+02 -0.15392699911E+03  0.16519624462E+03  0.00000000000E+00 0.  1.
         22    1    1    2    0    0 -0.92176449600E+01  0.15372449377E+02 -0.40496229936E+02  0.44285684114E+02  0.00000000000E+00 0. -1.
         22    1    1    2    0    0  0.19032332816E+02  0.22522748877E+02  0.84842986755E+02  0.89821135102E+02  0.00000000000E+00 0.  1.
</event>
<event>
 6    1  0.4069520E-005  0.7647394E+02  0.7818608E-02  0.1406216E+00
          2   -1    0    0  502    0  0.00000000000E+00  0.00000000000E+00  0.15808122201E+03  0.15808122201E+03  0.00000000000E+00 0.  1.
          1   -1    0    0  501    0 -0.00000000000E+00 -0.00000000000E+00 -0.26987207905E+03  0.26987207905E+03  0.00000000000E+00 0.  1.
          2    1    1    2  501    0  0.14585329844E+02 -0.55896212877E+02 -0.94474218216E+02  0.11073615655E+03  0.00000000000E+00 0.  1.
          1    1    1    2  502    0 -0.47914095083E+01  0.83618478561E+02 -0.12556492476E+03  0.15093560843E+03  0.00000000000E+00 0.  1.
         22    1    1    2    0    0 -0.18505405785E+02 -0.17376399005E+02  0.13443374165E+03  0.13680943016E+03  0.00000000000E+00 0.  1.
         22    1    1    2    0    0  0.87114854487E+01 -0.10345866679E+02 -0.26185455718E+02  0.29472105918E+02  0.00000000000E+00 0.  1.
</event>
<event>
 6    1  0.4069520E-005  0.1314170E+03  0.7818608E-02  0.1290062E+00
          2   -1    0    0  502    0  0.00000000000E+00  0.00000000000E+00  0.92105396457E+02  0.92105396457E+02  0.00000000000E+00 0. -1.
          1   -1    0    0  501    0 -0.00000000000E+00 -0.00000000000E+00 -0.29982394075E+03  0.29982394075E+03  0.00000000000E+00 0. -1.
          2    1    1    2  501    0  0.55371760027E+02 -0.34512398440E+02 -0.12797837071E+03  0.14365096875E+03  0.00000000000E+00 0. -1.
          1    1    1    2  502    0 -0.45102179430E+02  0.60554516494E+02 -0.96254954786E+02  0.12233589979E+03  0.00000000000E+00 0. -1.
         22    1    1    2    0    0  0.24426047609E+01  0.36561577469E+02  0.43255620286E+02  0.56690069248E+02  0.00000000000E+00 0. -1.
         22    1    1    2    0    0 -0.12712185358E+02 -0.62603695522E+02 -0.26740839087E+02  0.69252399415E+02  0.00000000000E+00 0. -1.
</event>
<event>
 6    1  0.4069520E-005  0.3334777E+03  0.7818608E-02  0.1120648E+00
          2   -1    0    0  502    0  0.00000000000E+00  0.00000000000E+00  0.60488241248E+03  0.60488241248E+03  0.00000000000E+00 0. -1.
          1   -1    0    0  501    0 -0.00000000000E+00 -0.00000000000E+00 -0.58929668084E+03  0.58929668084E+03  0.00000000000E+00 0. -1.
          2    1    1    2  501    0  0.22672429877E+03 -0.23016240011E+03 -0.79925831844E+02  0.33281643089E+03  0.00000000000E+00 0. -1.
          1    1    1    2  502    0 -0.28845728134E+03  0.17345180512E+03 -0.29279532416E+03  0.44611908019E+03  0.00000000000E+00 0. -1.
         22    1    1    2    0    0  0.57470617352E+02  0.66075534019E+02  0.39391048702E+03  0.40352734707E+03  0.00000000000E+00 0. -1.
         22    1    1    2    0    0  0.42623652151E+01 -0.93649390313E+01 -0.56035993777E+01  0.11716235158E+02  0.00000000000E+00 0.  1.
</event>
<event>
 6    1  0.4069520E-005  0.1021927E+03  0.7818608E-02  0.1315660E+00
          2   -1    0    0  502    0  0.00000000000E+00  0.00000000000E+00  0.75762302853E+02  0.75762302853E+02  0.00000000000E+00 0. -1.
          1   -1    0    0  501    0 -0.00000000000E+00 -0.00000000000E+00 -0.23790476796E+03  0.23790476796E+03  0.00000000000E+00 0. -1.
          2    1    1    2  501    0 -0.20056541551E+01  0.39117412597E+02 -0.10917896372E+02  0.40661961070E+02  0.00000000000E+00 0. -1.
          1    1    1    2  502    0 -0.67649560996E+01 -0.85398068315E+02 -0.84466196300E+02  0.12030433500E+03  0.00000000000E+00 0. -1.
         22    1    1    2    0    0 -0.41147604661E+02 -0.26071843845E+02 -0.31392559668E+02  0.57951352127E+02  0.00000000000E+00 0. -1.
         22    1    1    2    0    0  0.49918214916E+02  0.72352499563E+02 -0.35365812771E+02  0.94749422617E+02  0.00000000000E+00 0. -1.
</event>
<event>
 6    1  0.4069520E-005  0.2966468E+03  0.7818608E-02  0.1110042E+00
          2   -1    0    0  502    0  0.00000000000E+00  0.00000000000E+00  0.65676071614E+03  0.65676071614E+03  0.00000000000E+00 0.  1.
          1   -1    0    0  501    0 -0.00000000000E+00 -0.00000000000E+00 -0.39552939085E+03  0.39552939085E+03  0.00000000000E+00 0.  1.
          2    1    1    2  501    0  0.31538246600E+02 -0.31867690856E+03  0.37636672042E+03  0.49416752350E+03  0.00000000000E+00 0.  1.
          1    1    1    2  502    0  0.98542074134E+02  0.26775292029E+03 -0.20145586752E+03  0.34926584897E+03  0.00000000000E+00 0.  1.
         22    1    1    2    0    0 -0.14947834614E+03  0.63901529551E+02  0.59036000155E+02  0.17295210539E+03  0.00000000000E+00 0.  1.
         22    1    1    2    0    0  0.19398025404E+02 -0.12977541286E+02  0.27284472240E+02  0.35904629128E+02  0.00000000000E+00 0. -1.
</event>
<event>
 6    1  0.4069520E-005  0.1249584E+03  0.7818608E-02  0.1309830E+00
          2   -1    0    0  502    0  0.00000000000E+00  0.00000000000E+00  0.11199220158E+03  0.11199220158E+03  0.00000000000E+00 0.  1.
          1   -1    0    0  501    0 -0.00000000000E+00 -0.00000000000E+00 -0.18187390113E+04  0.18187390113E+04  0.00000000000E+00 0. -1.
          2    1    1    2  501    0  0.13317100124E+02 -0.70048822814E+02 -0.97356113613E+02  0.12067475126E+03  0.00000000000E+00 0.  1.
          1    1    1    2  502    0  0.18049499270E+02  0.80400127656E+02 -0.16664128831E+04  0.16684489389E+04  0.00000000000E+00 0. -1.
         22    1    1    2    0    0 -0.31152800147E+02  0.19252089612E+02 -0.31475706738E+02  0.48289336567E+02  0.00000000000E+00 0.  1.
         22    1    1    2    0    0 -0.21379924711E+00 -0.29603394455E+02  0.88497893694E+02  0.93318186125E+02  0.00000000000E+00 0.  1.
</event>
<event>
 6    1  0.4069520E-005  0.1661664E+03  0.7818608E-02  0.1229300E+00
          2   -1    0    0  502    0  0.00000000000E+00  0.00000000000E+00  0.42738428143E+03  0.42738428143E+03  0.00000000000E+00 0. -1.
          1   -1    0    0  501    0 -0.00000000000E+00 -0.00000000000E+00 -0.19326635814E+03  0.19326635814E+03  0.00000000000E+00 0. -1.
          2    1    1    2  501    0 -0.43663432719E+02  0.82151209455E+02  0.91552609506E+02  0.13052661368E+03  0.00000000000E+00 0. -1.
          1    1    1    2  502    0  0.19410755755E+02  0.69874582033E+01 -0.15400842031E+03  0.15538402600E+03  0.00000000000E+00 0. -1.
         22    1    1    2    0    0 -0.31568290364E+02 -0.72749498553E+02  0.89177163561E+02  0.11933822940E+03  0.00000000000E+00 0. -1.
         22    1    1    2    0    0  0.55820967328E+02 -0.16389169105E+02  0.20739657053E+03  0.21540177048E+03  0.00000000000E+00 0. -1.
</event>
<event>
 6    1  0.4069520E-005  0.5102847E+02  0.7818608E-02  0.1534307E+00
          2   -1    0    0  502    0  0.00000000000E+00  0.00000000000E+00  0.70449513186E+02  0.70449513186E+02  0.00000000000E+00 0.  1.
          1   -1    0    0  501    0 -0.00000000000E+00 -0.00000000000E+00 -0.82678917706E+03  0.82678917706E+03  0.00000000000E+00 0.  1.
          2    1    1    2  501    0  0.16724694864E+02 -0.14899648627E+02 -0.80445307007E+02  0.83505463097E+02  0.00000000000E+00 0.  1.
          1    1    1    2  502    0 -0.30610905698E+02  0.39011186977E+02 -0.68239998677E+03  0.68419927083E+03  0.00000000000E+00 0.  1.
         22    1    1    2    0    0  0.23246974345E+02 -0.14247720480E+02 -0.57745837399E+02  0.63859228714E+02  0.00000000000E+00 0.  1.
         22    1    1    2    0    0 -0.93607635105E+01 -0.98638178703E+01  0.64251467300E+02  0.65674727611E+02  0.00000000000E+00 0.  1.
</event>
<event>
 6    1  0.4069520E-005  0.1308538E+03  0.7818608E-02  0.1288692E+00
          2   -1    0    0  502    0  0.00000000000E+00  0.00000000000E+00  0.24737024402E+03  0.24737024402E+03  0.00000000000E+00 0. -1.
          1   -1    0    0  501    0 -0.00000000000E+00 -0.00000000000E+00 -0.11044726532E+03  0.11044726532E+03  0.00000000000E+00 0. -1.
          2    1    1    2  501    0  0.51557847228E+02 -0.12859794428E+01  0.26989489071E+01  0.51644454485E+02  0.00000000000E+00 0. -1.
          1    1    1    2  502    0 -0.10844601376E+03 -0.33196622822E+02  0.37310527201E+01  0.11347455407E+03  0.00000000000E+00 0. -1.
         22    1    1    2    0    0  0.39615854192E+02  0.68424326123E+02  0.28865460933E+02  0.84169585621E+02  0.00000000000E+00 0. -1.
         22    1    1    2    0    0  0.17272312335E+02 -0.33941723858E+02  0.10162751614E+03  0.10852891517E+03  0.00000000000E+00 0. -1.
</event>
<event>
 6    1  0.4069520E-005  0.1582659E+03  0.7818608E-02  0.1296237E+00
          2   -1    0    0  502    0  0.00000000000E+00  0.00000000000E+00  0.17505287662E+03  0.17505287662E+03  0.00000000000E+00 0.  1.
          1   -1    0    0  501    0 -0.00000000000E+00 -0.00000000000E+00 -0.29498058115E+03  0.29498058115E+03  0.00000000000E+00 0.  1.
          2    1    1    2  501    0 -0.18745934612E+02 -0.68734187715E+02 -0.13617870615E+01  0.71257652847E+02  0.00000000000E+00 0.  1.
          1    1    1    2  502    0 -0.61296634583E+02  0.60810019703E+02 -0.20747179122E+03  0.22472133868E+03  0.00000000000E+00 0.  1.
         22    1    1    2    0    0 -0.16185671321E+02  0.93626727247E+01  0.74417872116E+02  0.76731058164E+02  0.00000000000E+00 0.  1.
         22    1    1    2    0    0  0.96228240516E+02 -0.14385047127E+01  0.14488001638E+02  0.97323408079E+02  0.00000000000E+00 0.  1.
</event>
<event>
 6    1  0.4069520E-005  0.6131755E+02  0.7818608E-02  0.1455024E+00
          2   -1    0    0  502    0  0.00000000000E+00  0.00000000000E+00  0.10323321351E+03  0.10323321351E+03  0.00000000000E+00 0. -1.
          1   -1    0    0  501    0 -0.00000000000E+00 -0.00000000000E+00 -0.69100498956E+03  0.69100498956E+03  0.00000000000E+00 0.  1.
          2    1    1    2  501    0  0.12890787763E+02  0.15997913798E+02 -0.62200812437E+02  0.65506081572E+02  0.00000000000E+00 0. -1.
          1    1    1    2  502    0 -0.48016167473E+02 -0.44173244493E+02 -0.58351972031E+03  0.58715593487E+03  0.00000000000E+00 0.  1.
         22    1    1    2    0    0  0.13926118033E+02  0.18937060585E+02  0.95019645445E+02  0.97884023454E+02  0.00000000000E+00 0. -1.
         22    1    1    2    0    0  0.21199261677E+02  0.92382701095E+01 -0.37070888750E+02  0.43692163176E+02  0.00000000000E+00 0. -1.
</event>
<event>
 6    1  0.4069520E-005  0.1108617E+03  0.7818608E-02  0.1321094E+00
          2   -1    0    0  502    0  0.00000000000E+00  0.00000000000E+00  0.20418661753E+02  0.20418661753E+02  0.00000000000E+00 0. -1.
          1   -1    0    0  501    0 -0.00000000000E+00 -0.00000000000E+00 -0.10277125959E+04  0.10277125959E+04  0.00000000000E+00 0. -1.
          2    1    1    2  501    0  0.83831405739E+01 -0.46410219034E+02 -0.15789142964E+03  0.16478437132E+03  0.00000000000E+00 0. -1.
          1    1    1    2  502    0 -0.70838089074E+02  0.69302292115E+02 -0.44085703491E+03  0.45185812794E+03  0.00000000000E+00 0. -1.
         22    1    1    2    0    0  0.42503868938E+02 -0.51180672130E+02 -0.38230602172E+03  0.38805145834E+03  0.00000000000E+00 0. -1.
         22    1    1    2    0    0  0.19951079563E+02  0.28288599050E+02 -0.26239447889E+02  0.43437300070E+02  0.00000000000E+00 0. -1.
</event>
<event>
 6    1  0.4069520E-005  0.1087540E+03  0.7818608E-02  0.1291157E+00
          2   -1    0    0  502    0  0.00000000000E+00  0.00000000000E+00  0.51206921805E+03  0.51206921805E+03  0.00000000000E+00 0. -1.
          1   -1    0    0  501    0 -0.00000000000E+00 -0.00000000000E+00 -0.30290024251E+02  0.30290024251E+02  0.00000000000E+00 0. -1.
          2    1    1    2  501    0 -0.26473990468E+02 -0.21438545174E+02 -0.19428093967E+01  0.34121223584E+02  0.00000000000E+00 0. -1.
          1    1    1    2  502    0 -0.16344996258E+02 -0.14277894662E+02  0.73140099332E+02  0.76292144477E+02  0.00000000000E+00 0. -1.
         22    1    1    2    0    0  0.47270984151E+00  0.64901985524E+02  0.33020672066E+03  0.33652484240E+03  0.00000000000E+00 0. -1.
         22    1    1    2    0    0  0.42346276885E+02 -0.29185545687E+02  0.80375183195E+02  0.95421031837E+02  0.00000000000E+00 0.  1.
</event>
<event>
 6    1  0.7592010E-005  0.2209989E+03  0.7818608E-02  0.1244562E+00
          2   -1    0    0  502    0  0.00000000000E+00  0.00000000000E+00  0.31390308573E+03  0.31390308573E+03  0.00000000000E+00 0. -1.
          1   -1    0    0  501    0 -0.00000000000E+00 -0.00000000000E+00 -0.65028136054E+03  0.65028136054E+03  0.00000000000E+00 0. -1.
          2    1    1    2  501    0  0.71167787151E+02  0.25949802737E+02 -0.52775191091E+01  0.75934829940E+02  0.00000000000E+00 0. -1.
          1    1    1    2  502    0 -0.79292704989E+02 -0.53446823914E+02 -0.59165941886E+03  0.59933693693E+03  0.00000000000E+00 0. -1.
         22    1    1    2    0    0  0.12030910595E+02  0.45735155583E+02  0.26545049435E+03  0.26963013966E+03  0.00000000000E+00 0. -1.
         22    1    1    2    0    0 -0.39059927583E+01 -0.18238134406E+02 -0.48918311903E+01  0.19282539730E+02  0.00000000000E+00 0.  1.
</event>
<event>
 6    1  0.4069520E-005  0.7275305E+02  0.7818608E-02  0.1463115E+00
          2   -1    0    0  502    0  0.00000000000E+00  0.00000000000E+00  0.10949946039E+03  0.10949946039E+03  0.00000000000E+00 0. -1.
          1   -1    0    0  501    0 -0.00000000000E+00 -0.00000000000E+00 -0.13206439990E+03  0.13206439990E+03  0.00000000000E+00 0. -1.
          2    1    1    2  501    0 -0.29519784677E+02 -0.23896497177E+01 -0.38269184482E+02  0.48390687059E+02  0.00000000000E+00 0. -1.
          1    1    1    2  502    0  0.54976445040E+02  0.24304661679E+02  0.18924619940E+02  0.63017992101E+02  0.00000000000E+00 0. -1.
         22    1    1    2    0    0  0.60162166656E+01  0.10968788400E+02  0.54913970878E+02  0.56320985249E+02  0.00000000000E+00 0. -1.
         22    1    1    2    0    0 -0.31472877028E+02 -0.32883800361E+02 -0.58134345845E+02  0.73834195881E+02  0.00000000000E+00 0.  1.
</event>
<event>
 6    1  0.4069520E-005  0.2823596E+03  0.7818608E-02  0.1154604E+00
          2   -1    0    0  502    0  0.00000000000E+00  0.00000000000E+00  0.48025376949E+03  0.48025376949E+03  0.00000000000E+00 0. -1.
          1   -1    0    0  501    0 -0.00000000000E+00 -0.00000000000E+00 -0.14926881224E+04  0.14926881224E+04  0.00000000000E+00 0. -1.
          2    1    1    2  501    0  0.29137601453E+03 -0.20978536654E+02  0.16983466621E+03  0.33791107512E+03  0.00000000000E+00 0. -1.
          1    1    1    2  502    0 -0.27437302491E+03  0.17241506110E+02 -0.13768233135E+04  0.14040015182E+04  0.00000000000E+00 0. -1.
         22    1    1    2    0    0  0.40481637915E+02 -0.22917614579E+02  0.31727951006E+02  0.56308462431E+02  0.00000000000E+00 0.  1.
         22    1    1    2    0    0 -0.57484627543E+02  0.26654645122E+02  0.16282634337E+03  0.17472083620E+03  0.00000000000E+00 0. -1.
</event>
<event>
 6    1  0.4069520E-005  0.1188786E+03  0.7818608E-02  0.1245787E+00
          2   -1    0    0  502    0  0.00000000000E+00  0.00000000000E+00  0.47374351451E+02  0.47374351451E+02  0.00000000000E+00 0.  1.
          1   -1    0    0  501    0 -0.00000000000E+00 -0.00000000000E+00 -0.64577527731E+03  0.64577527731E+03  0.00000000000E+00 0.  1.
          2    1    1    2  501    0 -0.61892540336E+02 -0.39897578300E+02 -0.71689947759E+02  0.10277135745E+03  0.00000000000E+00 0.  1.
          1    1    1    2  502    0 -0.39364764245E+02 -0.25568191252E+02 -0.31326260193E+03  0.31675980622E+03  0.00000000000E+00 0.  1.
         22    1    1    2    0    0  0.12576157057E+03  0.72318843441E+02 -0.17232223828E+03  0.22525750055E+03  0.00000000000E+00 0.  1.
         22    1    1    2    0    0 -0.24504265986E+02 -0.68530738895E+01 -0.41126137890E+02  0.48360964538E+02  0.00000000000E+00 0.  1.
</event>
<event>
 6    1  0.4069520E-005  0.2416037E+03  0.7818608E-02  0.1140725E+00
          2   -1    0    0  502    0  0.00000000000E+00  0.00000000000E+00  0.26218163829E+03  0.26218163829E+03  0.00000000000E+00 0. -1.
          1   -1    0    0  501    0 -0.00000000000E+00 -0.00000000000E+00 -0.41444922353E+03  0.41444922353E+03  0.00000000000E+00 0.  1.
          2    1    1    2  501    0 -0.10519428937E+03 -0.25893168700E+03 -0.55764465198E+02  0.28499321505E+03  0.00000000000E+00 0. -1.
          1    1    1    2  502    0  0.13471310628E+03  0.13694060313E+03 -0.94742868692E+02  0.21418814383E+03  0.00000000000E+00 0.  1.
         22    1    1    2    0    0 -0.15772386221E+02 -0.18057303419E+02  0.24521509274E+02  0.34294879952E+02  0.00000000000E+00 0.  1.
         22    1    1    2    0    0 -0.13746430685E+02  0.14004838728E+03 -0.26281760624E+02  0.14315462297E+03  0.00000000000E+00 0. -1.
</event>
<event>
 6    1  0.4069520E-005  0.2371254E+03  0.7818608E-02  0.1240605E+00
          2   -1    0    0  502    0  0.00000000000E+00  0.00000000000E+00  0.23605152924E+03  0.23605152924E+03  0.00000000000E+00 0. -1.
          1   -1    0    0  501    0 -0.00000000000E+00 -0.00000000000E+00 -0.32656987174E+03  0.32656987174E+03  0.00000000000E+00 0.  1.
          2    1    1    2  501    0 -0.18338494047E+02  0.84641897343E+02  0.22283103475E+02  0.89426438205E+02  0.00000000000E+00 0. -1.
          1    1    1    2  502    0  0.82595867902E+02 -0.21899978770E+03 -0.14774309111E+03  0.27678693137E+03  0.00000000000E+00 0.  1.
         22    1    1    2    0    0  0.85791989608E+01  0.13926485114E+02  0.52113585620E+02  0.54620284223E+02  0.00000000000E+00 0. -1.
         22    1    1    2    0    0 -0.72836572816E+02  0.12043140524E+03 -0.17171940491E+02  0.14178774717E+03  0.00000000000E+00 0. -1.
</event>
<event>
 6    1  0.4069520E-005  0.1107452E+03  0.7818608E-02  0.1315216E+00
          2   -1    0    0  502    0  0.00000000000E+00  0.00000000000E+00  0.56313746352E+03  0.56313746352E+03  0.00000000000E+00 0. -1.
          1   -1    0    0  501    0 -0.00000000000E+00 -0.00000000000E+00 -0.14488360273E+04  0.14488360273E+04  0.00000000000E+00 0. -1.
          2    1    1    2  501    0  0.29474129175E+02 -0.21751363636E+02  0.66237076793E+02  0.75691455613E+02  0.00000000000E+00 0. -1.
          1    1    1    2  502    0 -0.93120669787E+02  0.38479949397E+02 -0.14324140799E+04  0.14359534331E+04  0.00000000000E+00 0. -1.
         22    1    1    2    0    0  0.83744464004E+02 -0.49663495921E+02  0.38994959202E+03  0.40192074143E+03  0.00000000000E+00 0. -1.
         22    1    1    2    0    0 -0.20097923392E+02  0.32934910161E+02  0.90528847365E+02  0.98407860648E+02  0.00000000000E+00 0. -1.
</event>
<event>
 6    1  0.4069520E-005  0.8978308E+02  0.7818608E-02  0.1308150E+00
          2   -1    0    0  502    0  0.00000000000E+00  0.00000000000E+00  0.31876213271E+02  0.31876213271E+02  0.00000000000E+00 0. -1.
          1   -1    0    0  501    0 -0.00000000000E+00 -0.00000000000E+00 -0.63472253097E+03  0.63472253097E+03  0.00000000000E+00 0. -1.
          2    1    1    2  501    0  0.40395089464E+02  0.58669919865E+02 -0.29228064201E+03  0.30083533111E+03  0.00000000000E+00 0. -1.
          1    1    1    2  502    0 -0.37517055382E+02  0.93979000875E+01 -0.12933147356E+03  0.13499066643E+03  0.00000000000E+00 0. -1.
         22    1    1    2    0    0 -0.58536042487E+02 -0.16102584070E+02 -0.11415433842E+03  0.12929413933E+03  0.00000000000E+00 0.  1.
         22    1    1    2    0    0  0.55658008405E+02 -0.51965235882E+02 -0.67079863714E+02  0.10147860738E+03  0.00000000000E+00 0. -1.
</event>
<event>
 6    1  0.4069520E-005  0.2327609E+03  0.7818608E-02  0.1197298E+00
          2   -1    0    0  502    0  0.00000000000E+00  0.00000000000E+00  0.36772468912E+02  0.36772468912E+02  0.00000000000E+00 0. -1.
          1   -1    0    0  501    0 -0.00000000000E+00 -0.00000000000E+00 -0.84691029375E+03  0.84691029375E+03  0.00000000000E+00 0. -1.
          2    1    1    2  501    0  0.43116277750E+02  0.36509980761E+01 -0.40434343815E+03  0.40665213533E+03  0.00000000000E+00 0. -1.
          1    1    1    2  502    0  0.11576157274E+02  0.21536746472E+02 -0.30168024645E+03  0.30266947313E+03  0.00000000000E+00 0. -1.
         22    1    1    2    0    0 -0.75253082975E+02 -0.60103332406E+02 -0.55805129457E+02  0.11130880260E+03  0.00000000000E+00 0. -1.
         22    1    1    2    0    0  0.20560647951E+02  0.34915587857E+02 -0.48309010788E+02  0.63052351605E+02  0.00000000000E+00 0.  1.
</event>
<event>
 6    1  0.4069520E-005  0.1237646E+03  0.7818608E-02  0.1263740E+00
          2   -1    0    0  502    0  0.00000000000E+00  0.00000000000E+00  0.20655274876E+03  0.20655274876E+03  0.00000000000E+00 0. -1.
          1   -1    0    0  501    0 -0.00000000000E+00 -0.00000000000E+00 -0.28222737484E+03  0.28222737484E+03  0.00000000000E+00 0.  1.
          2    1    1    2  501    0 -0.46641326248E+02  0.50904841868E+02  0.31532775970E+02  0.75901463755E+02  0.00000000000E+00 0. -1.
          1    1    1    2  502    0 -0.11937690427E+00 -0.11269258898E+03 -0.20534263129E+03  0.23423328134E+03  0.00000000000E+00 0.  1.
         22    1    1    2    0    0  0.71970477919E+02  0.93810319509E+01  0.10305103782E+02  0.73307220765E+02  0.00000000000E+00 0. -1.
         22    1    1    2    0    0 -0.25209774767E+02  0.52406715166E+02  0.87830125460E+02  0.10533815774E+03  0.00000000000E+00 0. -1.
</event>
<event>
 6    1  0.4069520E-005  0.7233294E+02  0.7818608E-02  0.1358803E+00
          2   -1    0    0  502    0  0.00000000000E+00  0.00000000000E+00  0.20890188801E+03  0.20890188801E+03  0.00000000000E+00 0.  1.
          1   -1    0    0  501    0 -0.00000000000E+00 -0.00000000000E+00 -0.60788814262E+03  0.60788814262E+03  0.00000000000E+00 0.  1.
          2    1    1    2  501    0 -0.10853880301E+02  0.28074027328E+02  0.59405680155E+02  0.66595739824E+02  0.00000000000E+00 0.  1.
          1    1    1    2  502    0 -0.13649181221E+02  0.35394310351E+02 -0.56681990851E+03  0.56808790344E+03  0.00000000000E+00 0.  1.
         22    1    1    2    0    0  0.21824111532E+02  0.29373120740E+02  0.74898032685E+02  0.83359386792E+02  0.00000000000E+00 0. -1.
         22    1    1    2    0    0  0.26789499897E+01 -0.92841458419E+02  0.33529941066E+02  0.98747000574E+02  0.00000000000E+00 0.  1.
</event>
<event>
 6    1  0.4069520E-005  0.1532180E+03  0.7818608E-02  0.1323712E+00
          2   -1    0    0  502    0  0.00000000000E+00  0.00000000000E+00  0.75964711826E+02  0.75964711826E+02  0.00000000000E+00 0.  1.
          1   -1    0    0  501    0 -0.00000000000E+00 -0.00000000000E+00 -0.46301894249E+03  0.46301894249E+03  0.00000000000E+00 0.  1.
          2    1    1    2  501    0 -0.57976116028E+02  0.11500985589E+02 -0.62477385845E+02  0.86005386117E+02  0.00000000000E+00 0.  1.
          1    1    1    2  502    0  0.15010003028E+03 -0.22975600688E+00 -0.22429247718E+03  0.26988365492E+03  0.00000000000E+00 0.  1.
         22    1    1    2    0    0 -0.89354166756E+02 -0.23476717772E+02 -0.12497333195E+03  0.15541446873E+03  0.00000000000E+00 0.  1.
         22    1    1    2    0    0 -0.27697474911E+01  0.12205488190E+02  0.24688964307E+02  0.27680144539E+02  0.00000000000E+00 0.  1.
</event>
<event>
 6    1  0.4069520E-005  0.9047748E+02  0.7818608E-02  0.1333198E+00
          2   -1    0    0  502    0  0.00000000000E+00  0.00000000000E+00  0.11977791295E+03  0.11977791295E+03  0.00000000000E+00 0. -1.
          1   -1    0    0  501    0 -0.00000000000E+00 -0.00000000000E+00 -0.22597853943E+04  0.22597853943E+04  0.00000000000E+00 0.  1.
          2    1    1    2  501    0  0.21725343365E+02 -0.25268434926E+02  0.14998206734E+02  0.36543543248E+02  0.00000000000E+00 0. -1.
          1    1    1    2  502    0 -0.65084138594E+02  0.46556927273E+02 -0.22025584527E+04  0.22040116221E+04  0.00000000000E+00 0.  1.
         22    1    1    2    0    0  0.45720602446E+02  0.23523419358E+02 -0.22250535922E+02  0.56025093441E+02  0.00000000000E+00 0. -1.
         22    1    1    2    0    0 -0.23618072159E+01 -0.44811911706E+02  0.69803300570E+02  0.82983048477E+02  0.00000000000E+00 0. -1.
</event>
<event>
 6    1  0.4069520E-005  0.1317109E+03  0.7818608E-02  0.1349571E+00
          2   -1    0    0  502    0  0.00000000000E+00  0.00000000000E+00  0.57841021975E+02  0.57841021975E+02  0.00000000000E+00 0. -1.
          1   -1    0    0  501    0 -0.00000000000E+00 -0.00000000000E+00 -0.18473275986E+04  0.18473275986E+04  0.00000000000E+00 0. -1.
          2    1    1    2  501    0 -0.63932948058E+02  0.50364163453E+02 -0.14109788739E+03  0.16288825812E+03  0.00000000000E+00 0. -1.
          1    1    1    2  502    0  0.10452493127E+03 -0.79447255995E+02 -0.15835089360E+04  0.15889423772E+04  0.00000000000E+00 0. -1.
         22    1    1    2    0    0 -0.75255689422E+01  0.10053712826E+02  0.39899532390E+02  0.41829224406E+02  0.00000000000E+00 0. -1.
         22    1    1    2    0    0 -0.33066414271E+02  0.19029379716E+02 -0.10477928567E+03  0.11150876087E+03  0.00000000000E+00 0. -1.
</event>
<event>
 6    1  0.4069520E-005  0.2859636E+03  0.7818608E-02  0.1209149E+00
          2   -1    0    0  502    0  0.00000000000E+00  0.00000000000E+00  0.15143230221E+03  0.15143230221E+03  0.00000000000E+00 0. -1.
          1   -1    0    0  501    0 -0.00000000000E+00 -0.00000000000E+00 -0.65707045286E+03  0.65707045286E+03  0.00000000000E+00 0. -1.
          2    1    1    2  501    0 -0.21564641863E+02  0.14801695569E+03 -0.10354329858E+03  0.18192104780E+03  0.00000000000E+00 0. -1.
          1    1    1    2  502    0 -0.20678362083E+02 -0.50061874547E+02 -0.44978514249E+03  0.45303472311E+03  0.00000000000E+00 0. -1.
         22    1    1    2    0    0  0.57074569128E+02 -0.10808048115E+03 -0.38680148633E+00  0.12222539205E+03  0.00000000000E+00 0. -1.
         22    1    1    2    0    0 -0.14831565182E+02  0.10125400008E+02  0.48077091903E+02  0.51321592112E+02  0.00000000000E+00 0.  1.
</event>
<event>
 6    1  0.4069520E-005  0.1873924E+03  0.7818608E-02  0.1262366E+00
          2   -1    0    0  502    0  0.00000000000E+00  0.00000000000E+00  0.13588413222E+03  0.13588413222E+03  0.00000000000E+00 0.  1.
          1   -1    0    0  501    0 -0.00000000000E+00 -0.00000000000E+00 -0.11144809086E+04  0.11144809086E+04  0.00000000000E+00 0. -1.
          2    1    1    2  501    0 -0.25518871006E+02 -0.44435266122E+02 -0.35356847204E+02  0.62256022175E+02  0.00000000000E+00 0.  1.
          1    1    1    2  502    0 -0.57645068434E+02 -0.42338541502E+02 -0.10048842992E+04  0.10074264047E+04  0.00000000000E+00 0. -1.
         22    1    1    2    0    0  0.72153765437E+02  0.10521641065E+03  0.13907183149E+02  0.12833576540E+03  0.00000000000E+00 0.  1.
         22    1    1    2    0    0  0.11010174002E+02 -0.18442603024E+02  0.47737186922E+02  0.52346848549E+02  0.00000000000E+00 0. -1.
</event>
<event>
 6    1  0.4069520E-005  0.2211137E+03  0.7818608E-02  0.1164120E+00
          2   -1    0    0  502    0  0.00000000000E+00  0.00000000000E+00  0.60892653993E+03  0.60892653993E+03  0.00000000000E+00 0.  1.
          1   -1    0    0  501    0 -0.00000000000E+00 -0.00000000000E+00 -0.23593985691E+03  0.23593985691E+03  0.00000000000E+00 0.  1.
          2    1    1    2  501    0  0.10471041844E+03  0.14692605628E+03 -0.64798796306E+02  0.19170399513E+03  0.00000000000E+00 0.  1.
          1    1    1    2  502    0 -0.17123806055E+03 -0.25065935106E+03  0.32330560986E+03  0.44348517565E+03  0.00000000000E+00 0.  1.
         22    1    1    2    0    0  0.65483580479E+02  0.82975219342E+02  0.14084965667E+03  0.17610114174E+03  0.00000000000E+00 0.  1.
         22    1    1    2    0    0  0.10440616295E+01  0.20758075441E+02 -0.26369787210E+02  0.33576084319E+02  0.00000000000E+00 0.  1.
</event>
<event>
 6    1  0.4069520E-005  0.5175360E+02  0.7818608E-02  0.1437766E+00
          2   -1    0    0  502    0  0.00000000000E+00  0.00000000000E+00  0.47355022640E+02  0.47355022640E+02  0.00000000000E+00 0. -1.
          1   -1    0    0  501    0 -0.00000000000E+00 -0.00000000000E+00 -0.56884364751E+03  0.56884364751E+03  0.00000000000E+00 0. -1.
          2    1    1    2  501    0 -0.21398618988E+02  0.67292511223E+01  0.89375384076E+01  0.24146703875E+02  0.00000000000E+00 0. -1.
          1    1    1    2  502    0  0.22275105819E+02 -0.29575748699E+02 -0.42305699179E+03  0.42467413807E+03  0.00000000000E+00 0. -1.
         22    1    1    2    0    0 -0.31706138535E+02 -0.33109796498E+01  0.17332336847E+02  0.36285695633E+02  0.00000000000E+00 0. -1.
         22    1    1    2    0    0  0.30829651704E+02  0.26157477226E+02 -0.12470150834E+03  0.13109213256E+03  0.00000000000E+00 0. -1.
</event>
<event>
 6    1  0.4069520E-005  0.1904951E+03  0.7818608E-02  0.1202165E+00
          2   -1    0    0  502    0  0.00000000000E+00  0.00000000000E+00  0.87893262745E+02  0.87893262745E+02  0.00000000000E+00 0. -1.
          1   -1    0    0  501    0 -0.00000000000E+00 -0.00000000000E+00 -0.53800485290E+03  0.53800485290E+03  0.00000000000E+00 0. -1.
          2    1    1    2  501    0 -0.52952790729E+01  0.30981679685E+02 -0.20712621656E+03  0.20949743207E+03  0.00000000000E+00 0. -1.
          1    1    1    2  502    0  0.30925227439E+02 -0.12863043700E+03 -0.21668110506E+03  0.25387567884E+03  0.00000000000E+00 0. -1.
         22    1    1    2    0    0 -0.73322563107E+02  0.45596831867E+02 -0.31077528878E+02  0.91766454318E+02  0.00000000000E+00 0. -1.
         22    1    1    2    0    0  0.47692614741E+02  0.52051925443E+02  0.47732603477E+01  0.70758550420E+02  0.00000000000E+00 0. -1.
</event>
<event>
 6    1  0.4069520E-005  0.1157729E+03  0.7818608E-02  0.1252195E+00
          2   -1    0    0  502    0  0.00000000000E+00  0.00000000000E+00  0.90602763763E+03  0.90602763763E+03  0.00000000000E+00 0. -1.
          1   -1    0    0  501    0 -0.00000000000E+00 -0.00000000000E+00 -0.23144458211E+02  0.23144458211E+02  0.00000000000E+00 0.  1.
          2    1    1    2  501    0  0.63744353104E+02  0.69366567704E+02  0.43527655198E+03  0.44535462271E+03  0.00000000000E+00 0. -1.
          1    1    1    2  502    0 -0.35663406424E+02 -0.28043397410E+02  0.69372202080E+02  0.82890368062E+02  0.00000000000E+00 0.  1.
         22    1    1    2    0    0 -0.37136139426E+02 -0.80354104958E+02  0.20822336365E+03  0.22625835721E+03  0.00000000000E+00 0. -1.
         22    1    1    2    0    0  0.90551927464E+01  0.39030934664E+02  0.17001106171E+03  0.17466874786E+03  0.00000000000E+00 0. -1.
</event>
<event>
 6    1  0.4069520E-005  0.1128420E+03  0.7818608E-02  0.1275353E+00
          2   -1    0    0  502    0  0.00000000000E+00  0.00000000000E+00  0.52659995512E+02  0.52659995512E+02  0.00000000000E+00 0. -1.
          1   -1    0    0  501    0 -0.00000000000E+00 -0.00000000000E+00 -0.62194796112E+03  0.62194796112E+03  0.00000000000E+00 0.  1.
          2    1    1    2  501    0 -0.39513141795E+02 -0.30597566885E+02 -0.92766748224E+02  0.10537157610E+03  0.00000000000E+00 0. -1.
          1    1    1    2  502    0 -0.15435443559E+02  0.44899844440E+02 -0.41916940346E+03  0.42184978102E+03  0.00000000000E+00 0.  1.
         22    1    1    2    0    0 -0.11391512158E+02  0.42385666683E+02 -0.37887560470E+02  0.57980846215E+02  0.00000000000E+00 0.  1.
         22    1    1    2    0    0  0.66340097512E+02 -0.56687944238E+02 -0.19464253451E+02  0.89405753295E+02  0.00000000000E+00 0. -1.
</event>
<event>
 6    1  0.4069520E-005  0.9659233E+02  0.7818608E-02  0.1289016E+00
          2   -1    0    0  502    0  0.00000000000E+00  0.00000000000E+00  0.13341434289E+03  0.13341434289E+03  0.00000000000E+00 0.  1.
          1   -1    0    0  501    0 -0.00000000000E+00 -0.00000000000E+00 -0.73809042051E+03  0.73809042051E+03  0.00000000000E+00 0.  1.
          2    1    1    2  501    0 -0.64858943597E+02  0.16300711733E+02  0.76822073015E+02  0.10185296594E+03  0.00000000000E+00 0.  1.
          1    1    1    2  502    0 -0.10725792701E+02 -0.18688171689E+02 -0.60044266537E+03  0.60082916440E+03  0.00000000000E+00 0.  1.
         22    1    1    2    0    0 -0.26317105147E+02  0.22602265399E+01  0.13627719555E+02  0.29722270903E+02  0.00000000000E+00 0. -1.
         22    1    1    2    0    0  0.10190184145E+03  0.12723341585E+00 -0.94683204818E+02  0.13910036216E+03  0.00000000000E+00 0.  1.
</event>
<event>
 6    1  0.4069520E-005  0.1413090E+03  0.7818608E-02  0.1283097E+00
          2   -1    0    0  502    0  0.00000000000E+00  0.00000000000E+00  0.56459601509E+02  0.56459601509E+02  0.00000000000E+00 0.  1.
          1   -1    0    0  501    0 -0.00000000000E+00 -0.00000000000E+00 -0.71715749262E+03  0.71715749262E+03  0.00000000000E+00 0.  1.
          2    1    1    2  501    0 -0.85621973382E+02 -0.46305857385E+01 -0.43038338003E+03  0.43884213387E+03  0.00000000000E+00 0.  1.
          1    1    1    2  502    0  0.51788589523E+02  0.42292568091E+02  0.79182441657E+00  0.66868126237E+02  0.00000000000E+00 0.  1.
         22    1    1    2    0    0  0.52768981650E+02 -0.98998788310E+01 -0.22791192602E+03  0.23415041970E+03  0.00000000000E+00 0.  1.
         22    1    1    2    0    0 -0.18935597791E+02 -0.27762103522E+02 -0.31944094724E+01  0.33756414317E+02  0.00000000000E+00 0. -1.
</event>
<event>
 6    1  0.4069520E-005  0.5917223E+02  0.7818608E-02  0.1402907E+00
          2   -1    0    0  502    0  0.00000000000E+00  0.00000000000E+00  0.22191909458E+03  0.22191909458E+03  0.00000000000E+00 0. -1.
          1   -1    0    0  501    0 -0.00000000000E+00 -0.00000000000E+00 -0.38916253980E+02  0.38916253980E+02  0.00000000000E+00 0. -1.
          2    1    1    2  501    0 -0.17291881193E+02 -0.12818427974E+02  0.23642687393E+01  0.21654353317E+02  0.00000000000E+00 0. -1.
          1    1    1    2  502    0  0.21936355544E+02 -0.67876429598E+01  0.22188639225E+01  0.23069441879E+02  0.00000000000E+00 0. -1.
         22    1    1    2    0    0 -0.24920342008E+02 -0.34029935291E+02  0.18195953350E+02  0.45936397987E+02  0.00000000000E+00 0. -1.
         22    1    1    2    0    0  0.20275867657E+02  0.53636006224E+02  0.16022375459E+03  0.17017515538E+03  0.00000000000E+00 0. -1.
</event>
<event>
 6    1  0.4069520E-005  0.1011249E+03  0.7818608E-02  0.1380288E+00
          2   -1    0    0  502    0  0.00000000000E+00  0.00000000000E+00  0.63122162784E+02  0.63122162784E+02  0.00000000000E+00 0.  1.
          1   -1    0    0  501    0 -0.00000000000E+00 -0.00000000000E+00 -0.24618560277E+04  0.24618560277E+04  0.00000000000E+00 0. -1.
          2    1    1    2  501    0 -0.30511763291E+02 -0.32299302168E+02 -0.18047714649E+03  0.18586611586E+03  0.00000000000E+00 0.  1.
          1    1    1    2  502    0  0.24371009385E+02  0.83594884623E+02 -0.21962127948E+04  0.21979382819E+04  0.00000000000E+00 0. -1.
         22    1    1    2    0    0 -0.82297354204E+01 -0.14440249269E+02  0.53433262477E+02  0.55958581853E+02  0.00000000000E+00 0.  1.
         22    1    1    2    0    0  0.14370489327E+02 -0.36855333186E+02 -0.75477186087E+02  0.85215210892E+02  0.00000000000E+00 0.  1.
</event>
<event>
 6    1  0.4069520E-005  0.1411452E+03  0.7818608E-02  0.1313117E+00
          2   -1    0    0  502    0  0.00000000000E+00  0.00000000000E+00  0.10435249754E+03  0.10435249754E+03  0.00000000000E+00 0. -1.
          1   -1    0    0  501    0 -0.00000000000E+00 -0.00000000000E+00 -0.12028928474E+04  0.12028928474E+04  0.00000000000E+00 0. -1.
          2    1    1    2  501    0  0.74180807756E+02 -0.87142456089E+01 -0.10520310867E+04  0.10546791634E+04  0.00000000000E+00 0. -1.
          1    1    1    2  502    0 -0.10943793809E+03 -0.28684818380E+02 -0.41722331240E+01  0.11321169828E+03  0.00000000000E+00 0. -1.
         22    1    1    2    0    0  0.19655924387E+02  0.25943087384E+02 -0.85805548173E+02  0.91771407551E+02  0.00000000000E+00 0. -1.
         22    1    1    2    0    0  0.15601205946E+02  0.11455976605E+02  0.43468518131E+02  0.47583075725E+02  0.00000000000E+00 0. -1.
</event>
<event>
 6    1  0.4069520E-005  0.7848166E+02  0.7818608E-02  0.1341828E+00
          2   -1    0    0  502    0  0.00000000000E+00  0.00000000000E+00  0.20789023972E+03  0.20789023972E+03  0.00000000000E+00 0. -1.
          1   -1    0    0  501    0 -0.00000000000E+00 -0.00000000000E+00 -0.15727047639E+03  0.15727047639E+03  0.00000000000E+00 0. -1.
          2    1    1    2  501    0 -0.18052355522E+02 -0.12203000444E+02  0.14019550149E+02  0.25910394557E+02  0.00000000000E+00 0. -1.
          1    1    1    2  502    0 -0.55637552968E+01  0.35400157610E+02 -0.12615164247E+03  0.13114253097E+03  0.00000000000E+00 0. -1.
         22    1    1    2    0    0  0.29523696327E+02  0.48947991209E+02  0.66941928579E+02  0.88027133829E+02  0.00000000000E+00 0. -1.
         22    1    1    2    0    0 -0.59075855084E+01 -0.72145148376E+02  0.95809927069E+02  0.12008065675E+03  0.00000000000E+00 0. -1.
</event>
<event>
 6    1  0.4069520E-005  0.6135871E+02  0.7818608E-02  0.1432636E+00
          2   -1    0    0  502    0  0.00000000000E+00  0.00000000000E+00  0.83696675817E+02  0.83696675817E+02  0.00000000000E+00 0. -1.
          1   -1    0    0  501    0 -0.00000000000E+00 -0.00000000000E+00 -0.11072730860E+04  0.11072730860E+04  0.00000000000E+00 0.  1.
          2    1    1    2  501    0 -0.24307447677E+02 -0.14714698060E+02 -0.12738811543E+03  0.13051860520E+03  0.00000000000E+00 0. -1.
          1    1    1    2  502    0  0.31088353248E+02  0.51312080221E+02 -0.92450993881E+03  0.92645455487E+03  0.00000000000E+00 0.  1.
         22    1    1    2    0    0  0.15875129119E+02 -0.28613260276E+02  0.74818488993E+02  0.81661157739E+02  0.00000000000E+00 0. -1.
         22    1    1    2    0    0 -0.22656034689E+02 -0.79841218849E+01 -0.46496844944E+02  0.52335444011E+02  0.00000000000E+00 0. -1.
</event>
<event>
 6    1  0.1029065E-004  0.2608332E+02  0.7818608E-02  0.1695748E+00
          2   -1    0    0  502    0  0.00000000000E+00  0.00000000000E+00  0.85539783622E+02  0.85539783622E+02  0.00000000000E+00 0.  1.
          1   -1    0    0  501    0 -0.00000000000E+00 -0.00000000000E+00 -0.55166839948E+03  0.55166839948E+03  0.00000000000E+00 0. -1.
          2    1    1    2  501    0  0.31533526023E+01 -0.20423281608E+02 -0.12996024672E+03  0.13159300814E+03  0.00000000000E+00 0.  1.
          1    1    1    2  502    0 -0.12485727326E+02  0.19446271719E+02 -0.37080865525E+03  0.37152807388E+03  0.00000000000E+00 0. -1.
         22    1    1    2    0    0  0.28826908277E+01 -0.12643594289E+02 -0.48186210306E+02  0.49900713889E+02  0.00000000000E+00 0.  1.
         22    1    1    2    0    0  0.64496838961E+01  0.13620604178E+02  0.82826496416E+02  0.84186387196E+02  0.00000000000E+00 0.  1.
</event>
<event>
 6    1  0.4069520E-005  0.1531239E+03  0.7818608E-02  0.1197049E+00
          2   -1    0    0  502    0  0.00000000000E+00  0.00000000000E+00  0.38259265155E+03  0.38259265155E+03  0.00000000000E+00 0. -1.
          1   -1    0    0  501    0 -0.00000000000E+00 -0.00000000000E+00 -0.16841917410E+03  0.16841917410E+03  0.00000000000E+00 0. -1.
          2    1    1    2  501    0 -0.14981600410E+03 -0.52406116400E+02 -0.84893695595E+02  0.17999493236E+03  0.00000000000E+00 0. -1.
          1    1    1    2  502    0  0.30651157696E+02 -0.17625483670E+02  0.55032779840E+02  0.65412215981E+02  0.00000000000E+00 0. -1.
         22    1    1    2    0    0  0.13253521908E+03  0.69082158179E+02  0.24973235323E+03  0.29103982051E+03  0.00000000000E+00 0. -1.
         22    1    1    2    0    0 -0.13370372670E+02  0.94944189169E+00 -0.56979600242E+01  0.14564856803E+02  0.00000000000E+00 0. -1.
</event>
<event>
 6    1  0.4069520E-005  0.7207443E+02  0.7818608E-02  0.1363192E+00
          2   -1    0    0  502    0  0.00000000000E+00  0.00000000000E+00  0.77679912890E+02  0.77679912890E+02  0.00000000000E+00 0. -1.
          1   -1    0    0  501    0 -0.00000000000E+00 -0.00000000000E+00 -0.16673171064E+04  0.16673171064E+04  0.00000000000E+00 0. -1.
          2    1    1    2  501    0 -0.82994337932E+01  0.24221062288E+02 -0.91013412664E+02  0.94546188418E+02  0.00000000000E+00 0. -1.
          1    1    1    2  502    0  0.22887479861E+01 -0.88277691208E+02 -0.15069238775E+04  0.15095091128E+04  0.00000000000E+00 0. -1.
         22    1    1    2    0    0 -0.13349545301E+02  0.63350438683E+01 -0.52715411063E+02  0.54747216405E+02  0.00000000000E+00 0. -1.
         22    1    1    2    0    0  0.19360231108E+02  0.57721585051E+02  0.61015507722E+02  0.86194501634E+02  0.00000000000E+00 0. -1.
</event>
<event>
 6    1  0.4069520E-005  0.1419264E+03  0.7818608E-02  0.1247297E+00
          2   -1    0    0  502    0  0.00000000000E+00  0.00000000000E+00  0.22026907231E+02  0.22026907231E+02  0.00000000000E+00 0. -1.
          1   -1    0    0  501    0 -0.00000000000E+00 -0.00000000000E+00 -0.14371203499E+04  0.14371203499E+04  0.00000000000E+00 0. -1.
          2    1    1    2  501    0  0.17114291679E+01 -0.32617838842E+02 -0.54805382311E+03  0.54902627025E+03  0.00000000000E+00 0. -1.
          1    1    1    2  502    0  0.77573434748E+01  0.22594811030E+02 -0.71523388408E+03  0.71563273457E+03  0.00000000000E+00 0. -1.
         22    1    1    2    0    0 -0.59246415529E+02  0.29633281388E+02 -0.67019190257E+02  0.94232908167E+02  0.00000000000E+00 0. -1.
         22    1    1    2    0    0  0.49777642887E+02 -0.19610253575E+02 -0.84786545206E+02  0.10025534412E+03  0.00000000000E+00 0. -1.
</event>
<event>
 6    1  0.4069520E-005  0.5784413E+02  0.7818608E-02  0.1411068E+00
          2   -1    0    0  502    0  0.00000000000E+00  0.00000000000E+00  0.48131545914E+02  0.48131545914E+02  0.00000000000E+00 0.  1.
          1   -1    0    0  501    0 -0.00000000000E+00 -0.00000000000E+00 -0.13151818321E+04  0.13151818321E+04  0.00000000000E+00 0.  1.
          2    1    1    2  501    0 -0.17595269403E+02 -0.10759060574E+02 -0.18128275953E+03  0.18245215754E+03  0.00000000000E+00 0.  1.
          1    1    1    2  502    0 -0.54366512079E+01 -0.21366713062E+02 -0.10444137709E+04  0.10446464562E+04  0.00000000000E+00 0.  1.
         22    1    1    2    0    0  0.42414592983E+02  0.35754011236E+02  0.29387043101E+02  0.62776948951E+02  0.00000000000E+00 0.  1.
         22    1    1    2    0    0 -0.19382672372E+02 -0.36282375997E+01 -0.70740798913E+02  0.73437815376E+02  0.00000000000E+00 0.  1.
</event>
<event>
 6    1  0.4069520E-005  0.8517585E+02  0.7818608E-02  0.1324751E+00
          2   -1    0    0  502    0  0.00000000000E+00  0.00000000000E+00  0.42412636248E+03  0.42412636248E+03  0.00000000000E+00 0. -1.
          1   -1    0    0  501    0 -0.00000000000E+00 -0.00000000000E+00 -0.11047131255E+04  0.11047131255E+04  0.00000000000E+00 0. -1.
          2    1    1    2  501    0  0.76277410798E+01 -0.28229139401E+02  0.48418131253E+02  0.56563081417E+02  0.00000000000E+00 0. -1.
          1    1    1    2  502    0  0.27283865425E+02  0.56061741875E+01 -0.10887633849E+04  0.10891196201E+04  0.00000000000E+00 0. -1.
         22    1    1    2    0    0 -0.76451805066E+02  0.34501652962E+02  0.18482441896E+03  0.20296627404E+03  0.00000000000E+00 0. -1.
         22    1    1    2    0    0  0.41540198560E+02 -0.11878687748E+02  0.17493407172E+03  0.18019051242E+03  0.00000000000E+00 0.  1.
</event>
<event>
 6    1  0.4069520E-005  0.1134524E+03  0.7818608E-02  0.1284995E+00
          2   -1    0    0  502    0  0.00000000000E+00  0.00000000000E+00  0.31749092697E+03  0.31749092697E+03  0.00000000000E+00 0. -1.
          1   -1    0    0  501    0 -0.00000000000E+00 -0.00000000000E+00 -0.13190329961E+04  0.13190329961E+04  0.00000000000E+00 0.  1.
          2    1    1    2  501    0 -0.14373881976E+03  0.16342214261E+02  0.20136799241E+03  0.24794552756E+03  0.00000000000E+00 0. -1.
          1    1    1    2  502    0  0.94182955973E+02 -0.22770650209E+02 -0.12423468630E+04  0.12461198416E+04  0.00000000000E+00 0.  1.
         22    1    1    2    0    0 -0.13044727574E+02  0.87965413077E+01  0.70711229156E+02  0.72440472011E+02  0.00000000000E+00 0. -1.
         22    1    1    2    0    0  0.62600591362E+02 -0.23681053602E+01 -0.31274427727E+02  0.70018081889E+02  0.00000000000E+00 0.  1.
</event>
<event>
 6    1  0.4069520E-005  0.1880408E+03  0.7818608E-02  0.1230431E+00
          2   -1    0    0  502    0  0.00000000000E+00  0.00000000000E+00  0.25007826815E+03  0.25007826815E+03  0.00000000000E+00 0. -1.
          1   -1    0    0  501    0 -0.00000000000E+00 -0.00000000000E+00 -0.13944418074E+04  0.13944418074E+04  0.00000000000E+00 0.  1.
          2    1    1    2  501    0 -0.13529898615E+02  0.18419686206E+02 -0.17632569023E+02  0.28866078480E+02  0.00000000000E+00 0. -1.
          1    1    1    2  502    0 -0.11835213152E+03 -0.40061693315E+01 -0.13350355191E+04  0.13402772525E+04  0.00000000000E+00 0.  1.
         22    1    1    2    0    0  0.13700551531E+03  0.25651613700E+02  0.16833063277E+03  0.21854912135E+03  0.00000000000E+00 0. -1.
         22    1    1    2    0    0 -0.51234851767E+01 -0.40065130575E+02  0.39973916098E+02  0.56827623182E+02  0.00000000000E+00 0. -1.
</event>
<event>
 6    1  0.4069520E-005  0.1234094E+03  0.7818608E-02  0.1353148E+00
          2   -1    0    0  502    0  0.00000000000E+00  0.00000000000E+00  0.11946382436E+03  0.11946382436E+03  0.00000000000E+00 0. -1.
          1   -1    0    0  501    0 -0.00000000000E+00 -0.00000000000E+00 -0.43813816429E+03  0.43813816429E+03  0.00000000000E+00 0. -1.
          2    1    1    2  501    0  0.27599088753E+02  0.46837090967E+02 -0.16821458133E+00  0.54364060614E+02  0.00000000000E+00 0. -1.
          1    1    1    2  502    0  0.21572347405E+02  0.91122784830E+01 -0.35515712924E+03  0.35592834425E+03  0.00000000000E+00 0. -1.
         22    1    1    2    0    0 -0.13733949725E+02 -0.42102600586E+01  0.73286471870E+02  0.74681019168E+02  0.00000000000E+00 0. -1.
         22    1    1    2    0    0 -0.35437486433E+02 -0.51739109392E+02 -0.36635467982E+02  0.72628564626E+02  0.00000000000E+00 0.  1.
</event>
<event>
 6    1  0.4069520E-005  0.1096543E+03  0.7818608E-02  0.1362075E+00
          2   -1    0    0  502    0  0.00000000000E+00  0.00000000000E+00  0.55449873153E+02  0.55449873153E+02  0.00000000000E+00 0. -1.
          1   -1    0    0  501    0 -0.00000000000E+00 -0.00000000000E+00 -0.71663608411E+03  0.71663608411E+03  0.00000000000E+00 0. -1.
          2    1    1    2  501    0  0.98979220636E+01  0.30391260017E+02 -0.73310403723E+02  0.79975076371E+02  0.00000000000E+00 0. -1.
          1    1    1    2  502    0  0.20010328843E+02  0.21775492634E+02 -0.55030133728E+03  0.55109540658E+03  0.00000000000E+00 0. -1.
         22    1    1    2    0    0  0.97246693363E+00  0.17587793034E+02  0.32798216084E+02  0.37229009308E+02  0.00000000000E+00 0. -1.
         22    1    1    2    0    0 -0.30880717840E+02 -0.69754545685E+02 -0.70372686036E+02  0.10378646500E+03  0.00000000000E+00 0. -1.
</event>
<event>
 6    1  0.4069520E-005  0.8773435E+02  0.7818608E-02  0.1312165E+00
          2   -1    0    0  502    0  0.00000000000E+00  0.00000000000E+00  0.56891913033E+03  0.56891913033E+03  0.00000000000E+00 0.  1.
          1   -1    0    0  501    0 -0.00000000000E+00 -0.00000000000E+00 -0.58385971464E+03  0.58385971464E+03  0.00000000000E+00 0.  1.
          2    1    1    2  501    0 -0.31731146178E+02 -0.28969261914E+02  0.34324159669E+02  0.54993015108E+02  0.00000000000E+00 0.  1.
          1    1    1    2  502    0 -0.12491962856E+02  0.73927451452E+02 -0.56114308119E+03  0.56612973317E+03  0.00000000000E+00 0.  1.
         22    1    1    2    0    0  0.83299010752E+02 -0.31817230727E+02  0.43864102946E+03  0.44761257142E+03  0.00000000000E+00 0.  1.
         22    1    1    2    0    0 -0.39075901717E+02 -0.13140958811E+02  0.73237307751E+02  0.84043525272E+02  0.00000000000E+00 0.  1.
</event>
<event>
 6    1  0.4069520E-005  0.4615399E+03  0.7818608E-02  0.1121290E+00
          2   -1    0    0  502    0  0.00000000000E+00  0.00000000000E+00  0.53273914199E+03  0.53273914199E+03  0.00000000000E+00 0. -1.
          1   -1    0    0  501    0 -0.00000000000E+00 -0.00000000000E+00 -0.52762673831E+03  0.52762673831E+03  0.00000000000E+00 0. -1.
          2    1    1    2  501    0 -0.18764064085E+03  0.17999005639E+03  0.21825183512E+03  0.33946913561E+03  0.00000000000E+00 0. -1.
          1    1    1    2  502    0  0.12031495324E+02 -0.42336188187E+02 -0.40140246925E+03  0.40380818717E+03  0.00000000000E+00 0. -1.
         22    1    1    2    0    0  0.14350962653E+03 -0.14278036233E+03  0.19798506020E+03  0.28315954661E+03  0.00000000000E+00 0. -1.
         22    1    1    2    0    0  0.32099518992E+02  0.51264941271E+01 -0.97220223957E+01  0.33929010906E+02  0.00000000000E+00 0. -1.
</event>
<event>
 6    1  0.4069520E-005  0.1845318E+03  0.7818608E-02  0.1198164E+00
          2   -1    0    0  502    0  0.00000000000E+00  0.00000000000E+00  0.10187827759E+03  0.10187827759E+03  0.00000000000E+00 0. -1.
          1   -1    0    0  501    0 -0.00000000000E+00 -0.00000000000E+00 -0.88800697659E+03  0.88800697659E+03  0.00000000000E+00 0. -1.
          2    1    1    2  501    0  0.18278082888E+03  0.79653903487E+02 -0.55669827848E+03  0.59132609363E+03  0.00000000000E+00 0. -1.
          1    1    1    2  502    0 -0.11873632314E+03 -0.53043516694E+02 -0.22177560516E+03  0.25709210050E+03  0.00000000000E+00 0. -1.
         22    1    1    2    0    0 -0.83868398412E+02 -0.11938388046E+02  0.35428708914E+02  0.91823890010E+02  0.00000000000E+00 0. -1.
         22    1    1    2    0    0  0.19823892673E+02 -0.14671998747E+02 -0.43083524268E+02  0.49643170037E+02  0.00000000000E+00 0.  1.
</event>
<event>
 6    1  0.4069520E-005  0.9015360E+02  0.7818608E-02  0.1303628E+00
          2   -1    0    0  502    0  0.00000000000E+00  0.00000000000E+00  0.28549141362E+03  0.28549141362E+03  0.00000000000E+00 0. -1.
          1   -1    0    0  501    0 -0.00000000000E+00 -0.00000000000E+00 -0.37590217338E+03  0.37590217338E+03  0.00000000000E+00 0. -1.
          2    1    1    2  501    0 -0.24374267968E+02 -0.62832828035E+02  0.14966605115E+03  0.16414017206E+03  0.00000000000E+00 0. -1.
          1    1    1    2  502    0 -0.38434661848E+02  0.16049454640E+02 -0.32320369835E+03  0.32587641654E+03  0.00000000000E+00 0. -1.
         22    1    1    2    0    0 -0.13737538980E+02 -0.16034361521E+02  0.68003991215E+02  0.71206485293E+02  0.00000000000E+00 0.  1.
         22    1    1    2    0    0  0.76546468796E+02  0.62817734916E+02  0.15122896233E+02  0.10017051310E+03  0.00000000000E+00 0. -1.
</event>
<event>
 6    1  0.4069520E-005  0.1791137E+03  0.7818608E-02  0.1205953E+00
          2   -1    0    0  502    0  0.00000000000E+00  0.00000000000E+00  0.33996806715E+03  0.33996806715E+03  0.00000000000E+00 0. -1.
          1   -1    0    0  501    0 -0.00000000000E+00 -0.00000000000E+00 -0.18308821909E+03  0.18308821909E+03  0.00000000000E+00 0. -1.
          2    1    1    2  501    0 -0.27687093504E+02 -0.91976144427E+02 -0.76590067168E+02  0.12285041587E+03  0.00000000000E+00 0. -1.
          1    1    1    2  502    0  0.41886795995E+00  0.46967723952E+02 -0.60056394857E+02  0.76242462623E+02  0.00000000000E+00 0. -1.
         22    1    1    2    0    0 -0.44574427842E+02  0.16479978564E+02  0.52356479020E+02  0.70708346086E+02  0.00000000000E+00 0. -1.
         22    1    1    2    0    0  0.71842653386E+02  0.28528441911E+02  0.24116983106E+03  0.25325506167E+03  0.00000000000E+00 0. -1.
</event>
<event>
 6    1  0.4069520E-005  0.1314471E+03  0.7818608E-02  0.1337234E+00
          2   -1    0    0  502    0  0.00000000000E+00  0.00000000000E+00  0.36669405198E+02  0.36669405198E+02  0.00000000000E+00 0. -1.
          1   -1    0    0  501    0 -0.00000000000E+00 -0.00000000000E+00 -0.18945599966E+04  0.18945599966E+04  0.00000000000E+00 0. -1.
          2    1    1    2  501    0  0.23667853966E+01  0.45863138333E+02 -0.82611451810E+02  0.94518152230E+02  0.00000000000E+00 0. -1.
          1    1    1    2  502    0  0.71568212243E+02 -0.26649395320E+02 -0.16320766548E+04  0.16338624197E+04  0.00000000000E+00 0. -1.
         22    1    1    2    0    0 -0.80172996993E+02 -0.33542317484E+02 -0.15863804942E+03  0.18088346313E+03  0.00000000000E+00 0.  1.
         22    1    1    2    0    0  0.62379993527E+01  0.14328574471E+02  0.15435564623E+02  0.21965366774E+02  0.00000000000E+00 0. -1.
</event>
<event>
 6    1  0.4069520E-005  0.1029594E+03  0.7818608E-02  0.1393957E+00
          2   -1    0    0  502    0  0.00000000000E+00  0.00000000000E+00  0.72388302555E+02  0.72388302555E+02  0.00000000000E+00 0.  1.
          1   -1    0    0  501    0 -0.00000000000E+00 -0.00000000000E+00 -0.18704160985E+03  0.18704160985E+03  0.00000000000E+00 0.  1.
          2    1    1    2  501    0  0.62618841873E+02 -0.77140326335E+01 -0.46563398707E+02  0.78414129825E+02  0.00000000000E+00 0.  1.
          1    1    1    2  502    0 -0.25102905309E+02  0.26640975503E+02 -0.29385084366E+02  0.46940181230E+02  0.00000000000E+00 0.  1.
         22    1    1    2    0    0 -0.12539630820E+02  0.15107499826E+01  0.43746511881E+02  0.45533306583E+02  0.00000000000E+00 0.  1.
         22    1    1    2    0    0 -0.24976305744E+02 -0.20437692852E+02 -0.82451336103E+02  0.88542294769E+02  0.00000000000E+00 0. -1.
</event>
<event>
 6    1  0.4069520E-005  0.1397887E+03  0.7818608E-02  0.1339850E+00
          2   -1    0    0  502    0  0.00000000000E+00  0.00000000000E+00  0.61343472248E+02  0.61343472248E+02  0.00000000000E+00 0.  1.
          1   -1    0    0  501    0 -0.00000000000E+00 -0.00000000000E+00 -0.14675419700E+04  0.14675419700E+04  0.00000000000E+00 0. -1.
          2    1    1    2  501    0  0.74729671630E+02  0.20055221620E+02 -0.13192227265E+03  0.15293862089E+03  0.00000000000E+00 0.  1.
          1    1    1    2  502    0 -0.12911980154E+03 -0.24467635218E+01 -0.12229659239E+04  0.12297656528E+04  0.00000000000E+00 0. -1.
         22    1    1    2    0    0  0.62938105932E+02 -0.26614091018E+02 -0.85705917808E+02  0.10961304378E+03  0.00000000000E+00 0.  1.
         22    1    1    2    0    0 -0.85479760236E+01  0.90056329191E+01  0.34395616535E+02  0.36568124852E+02  0.00000000000E+00 0. -1.
</event>
<event>
 6    1  0.4069520E-005  0.2217584E+03  0.7818608E-02  0.1212783E+00
          2   -1    0    0  502    0  0.00000000000E+00  0.00000000000E+00  0.61938302738E+03  0.61938302738E+03  0.00000000000E+00 0. -1.
          1   -1    0    0  501    0 -0.00000000000E+00 -0.00000000000E+00 -0.47552404343E+03  0.47552404343E+03  0.00000000000E+00 0. -1.
          2    1    1    2  501    0  0.22384519640E+03 -0.91341619944E+01  0.48829302420E+03  0.53723382464E+03  0.00000000000E+00 0. -1.
          1    1    1    2  502    0 -0.21414944505E+03 -0.23770913409E+02 -0.36479764805E+03  0.42367719453E+03  0.00000000000E+00 0. -1.
         22    1    1    2    0    0  0.17768383598E+02  0.10194125776E+02  0.69974652818E+02  0.72911505903E+02  0.00000000000E+00 0.  1.
         22    1    1    2    0    0 -0.27464134947E+02  0.22710949628E+02 -0.49611045004E+02  0.61084545736E+02  0.00000000000E+00 0. -1.
</event>
<event>
 6    1  0.4069520E-005  0.8260492E+02  0.7818608E-02  0.1344880E+00
          2   -1    0    0  502    0  0.00000000000E+00  0.00000000000E+00  0.23349056886E+03  0.23349056886E+03  0.00000000000E+00 0. -1.
          1   -1    0    0  501    0 -0.00000000000E+00 -0.00000000000E+00 -0.35432967661E+03  0.35432967661E+03  0.00000000000E+00 0.  1.
          2    1    1    2  501    0 -0.29574075106E+02  0.58335102012E+02  0.15460875423E+02  0.67206016948E+02  0.00000000000E+00 0. -1.
          1    1    1    2  502    0  0.10057085281E+02 -0.25512518587E+02 -0.30421249129E+03  0.30544602375E+03  0.00000000000E+00 0.  1.
         22    1    1    2    0    0 -0.28372909721E+02 -0.89437990665E+01 -0.84010594711E+01  0.30912640586E+02  0.00000000000E+00 0. -1.
         22    1    1    2    0    0  0.47889899546E+02 -0.23878784359E+02  0.17631356758E+03  0.18425556418E+03  0.00000000000E+00 0.  1.
</event>
<event>
 6    1  0.4069520E-005  0.2265331E+03  0.7818608E-02  0.1225056E+00
          2   -1    0    0  502    0  0.00000000000E+00  0.00000000000E+00  0.23268353116E+03  0.23268353116E+03  0.00000000000E+00 0.  1.
          1   -1    0    0  501    0 -0.00000000000E+00 -0.00000000000E+00 -0.28440649514E+03  0.28440649514E+03  0.00000000000E+00 0. -1.
          2    1    1    2  501    0  0.96677183973E+02  0.71893103366E+02  0.35342794623E+02  0.12555560260E+03  0.00000000000E+00 0.  1.
          1    1    1    2  502    0 -0.17972630755E+02 -0.74139950603E+02 -0.19664830644E+03  0.21092724849E+03  0.00000000000E+00 0. -1.
         22    1    1    2    0    0 -0.10452440691E+03  0.17639151325E+01  0.50438729488E+02  0.11607122153E+03  0.00000000000E+00 0. -1.
         22    1    1    2    0    0  0.25819853689E+02  0.48293210449E+00  0.59143818352E+02  0.64535953678E+02  0.00000000000E+00 0. -1.
</event>
<event>
 6    1  0.4069520E-005  0.9429086E+02  0.7818608E-02  0.1320397E+00
          2   -1    0    0  502    0  0.00000000000E+00  0.00000000000E+00  0.46793915503E+03  0.46793915503E+03  0.00000000000E+00 0. -1.
          1   -1    0    0  501    0 -0.00000000000E+00 -0.00000000000E+00 -0.38466940332E+02  0.38466940332E+02  0.00000000000E+00 0. -1.
          2    1    1    2  501    0  0.83917347475E+01  0.22988205545E+02  0.11276244784E+02  0.26944990308E+02  0.00000000000E+00 0. -1.
          1    1    1    2  502    0 -0.42956963792E+02 -0.52447458766E+02  0.40654853542E+02  0.79049691876E+02  0.00000000000E+00 0. -1.
         22    1    1    2    0    0  0.32421554029E+02 -0.46839920149E+02  0.16871425297E+03  0.17807199229E+03  0.00000000000E+00 0. -1.
         22    1    1    2    0    0  0.21436750157E+01  0.76299173369E+02  0.20882686341E+03  0.22233942089E+03  0.00000000000E+00 0. -1.
</event>
<event>
 6    1  0.4069520E-005  0.3006877E+03  0.7818608E-02  0.1170551E+00
          2   -1    0    0  502    0  0.00000000000E+00  0.00000000000E+00  0.62086171657E+03  0.62086171657E+03  0.00000000000E+00 0. -1.
          1   -1    0    0  501    0 -0.00000000000E+00 -0.00000000000E+00 -0.15266692145E+03  0.15266692145E+03  0.00000000000E+00 0. -1.
          2    1    1    2  501    0 -0.50023830549E+02  0.23179436813E+03  0.14415727870E+03  0.27751096144E+03  0.00000000000E+00 0. -1.
          1    1    1    2  502    0  0.10551438374E+03 -0.19492242136E+03  0.13163072577E+03  0.25778805925E+03  0.00000000000E+00 0. -1.
         22    1    1    2    0    0 -0.79594436293E+02 -0.97861031894E+01  0.57872939381E+02  0.98895496445E+02  0.00000000000E+00 0. -1.
         22    1    1    2    0    0  0.24103883107E+02 -0.27085843573E+02  0.13453385128E+03  0.13933412088E+03  0.00000000000E+00 0.  1.
</event>
<event>
 6    1  0.4069520E-005  0.3323802E+03  0.7818608E-02  0.1212492E+00
          2   -1    0    0  502    0  0.00000000000E+00  0.00000000000E+00  0.25654168986E+03  0.25654168986E+03  0.00000000000E+00 0.  1.
          1   -1    0    0  501    0 -0.00000000000E+00 -0.00000000000E+00 -0.22314901527E+03  0.22314901527E+03  0.00000000000E+00 0. -1.
          2    1    1    2  501    0 -0.45590154097E+02  0.15915902599E+03  0.93111346113E+02  0.18994678328E+03  0.00000000000E+00 0.  1.
          1    1    1    2  502    0 -0.35786711025E+02 -0.45976046100E+02 -0.81411439342E+02  0.10011147765E+03  0.00000000000E+00 0. -1.
         22    1    1    2    0    0  0.84787692529E+02 -0.12327155682E+03 -0.15995711656E+02  0.15046824355E+03  0.00000000000E+00 0. -1.
         22    1    1    2    0    0 -0.34108274060E+01  0.10088576931E+02  0.37688479473E+02  0.39164200656E+02  0.00000000000E+00 0.  1.
</event>
<event>
 6    1  0.4069520E-005  0.1291915E+03  0.7818608E-02  0.1236634E+00
          2   -1    0    0  502    0  0.00000000000E+00  0.00000000000E+00  0.11776268054E+04  0.11776268054E+04  0.00000000000E+00 0. -1.
          1   -1    0    0  501    0 -0.00000000000E+00 -0.00000000000E+00 -0.43913143650E+02  0.43913143650E+02  0.00000000000E+00 0. -1.
          2    1    1    2  501    0  0.37564142732E+02 -0.12379538648E+03  0.28704642655E+03  0.31485236783E+03  0.00000000000E+00 0. -1.
          1    1    1    2  502    0 -0.61143119951E+02  0.71766307504E+02  0.69417662502E+02  0.11707986965E+03  0.00000000000E+00 0. -1.
         22    1    1    2    0    0  0.97906909637E+01 -0.42504598921E+02  0.24224517964E+03  0.24614066226E+03  0.00000000000E+00 0. -1.
         22    1    1    2    0    0  0.13788286255E+02  0.94533677895E+02  0.53500439304E+03  0.54346704930E+03  0.00000000000E+00 0. -1.
</event>
<event>
 6    1  0.4069520E-005  0.6963624E+02  0.7818608E-02  0.1379569E+00
          2   -1    0    0  502    0  0.00000000000E+00  0.00000000000E+00  0.16386257156E+03  0.16386257156E+03  0.00000000000E+00 0. -1.
          1   -1    0    0  501    0 -0.00000000000E+00 -0.00000000000E+00 -0.27938887191E+03  0.27938887191E+03  0.00000000000E+00 0. -1.
          2    1    1    2  501    0  0.69095555398E+02  0.18944366507E+02 -0.67814900405E+02  0.98650623490E+02  0.00000000000E+00 0. -1.
          1    1    1    2  502    0 -0.28264319779E+02 -0.31037001367E+02 -0.16271656619E+03  0.16804418508E+03  0.00000000000E+00 0. -1.
         22    1    1    2    0    0  0.67556925316E+01  0.27578036526E+02 -0.18561995300E+02  0.33922487375E+02  0.00000000000E+00 0. -1.
         22    1    1    2    0    0 -0.47586928150E+02 -0.15485401666E+02  0.13356716155E+03  0.14263414753E+03  0.00000000000E+00 0. -1.
</event>
<event>
 6    1  0.4069520E-005  0.1311096E+03  0.7818608E-02  0.1300345E+00
          2   -1    0    0  502    0  0.00000000000E+00  0.00000000000E+00  0.17277748505E+04  0.17277748505E+04  0.00000000000E+00 0. -1.
          1   -1    0    0  501    0 -0.00000000000E+00 -0.00000000000E+00 -0.44573262304E+02  0.44573262304E+02  0.00000000000E+00 0. -1.
          2    1    1    2  501    0  0.40716809471E+01 -0.30283762688E+02 -0.45206390086E+01  0.30888849854E+02  0.00000000000E+00 0. -1.
          1    1    1    2  502    0 -0.68335510098E+02  0.75919324912E+02  0.14998779396E+04  0.15033520278E+04  0.00000000000E+00 0. -1.
         22    1    1    2    0    0  0.88680686286E+02 -0.27383302360E+02  0.69636150302E+02  0.11603147330E+03  0.00000000000E+00 0.  1.
         22    1    1    2    0    0 -0.24416857134E+02 -0.18252259865E+02  0.11820813735E+03  0.12207576188E+03  0.00000000000E+00 0. -1.
</event>
<event>
 6    1  0.4069520E-005  0.1017660E+03  0.7818608E-02  0.1348221E+00
          2   -1    0    0  502    0  0.00000000000E+00  0.00000000000E+00  0.42966659508E+02  0.42966659508E+02  0.00000000000E+00 0. -1.
          1   -1    0    0  501    0 -0.00000000000E+00 -0.00000000000E+00 -0.72302338757E+03  0.72302338757E+03  0.00000000000E+00 0. -1.
          2    1    1    2  501    0  0.34265526588E+02 -0.17686555242E+02 -0.13042610012E+03  0.13600701504E+03  0.00000000000E+00 0. -1.
          1    1    1    2  502    0 -0.92819019431E+02  0.24029174000E+02 -0.44388046678E+03  0.45411743014E+03  0.00000000000E+00 0. -1.
         22    1    1    2    0    0  0.56736891207E+02 -0.34145261459E+02 -0.12537354381E+03  0.14178680895E+03  0.00000000000E+00 0. -1.
         22    1    1    2    0    0  0.18166016362E+01  0.27802642701E+02  0.19623382641E+02  0.34078792950E+02  0.00000000000E+00 0. -1.
</event>
<event>
 6    1  0.4069520E-005  0.2799218E+03  0.7818608E-02  0.1215556E+00
          2   -1    0    0  502    0  0.00000000000E+00  0.00000000000E+00  0.52272273692E+02  0.52272273692E+02  0.00000000000E+00 0.  1.
          1   -1    0    0  501    0 -0.00000000000E+00 -0.00000000000E+00 -0.12656021440E+04  0.12656021440E+04  0.00000000000E+00 0.  1.
          2    1    1    2  501    0  0.26789390792E+02 -0.63549340448E+02 -0.34720963912E+03  0.35399254742E+03  0.00000000000E+00 0.  1.
          1    1    1    2  502    0 -0.96918006409E+01 -0.25825996000E+02 -0.78829429391E+03  0.78877677887E+03  0.00000000000E+00 0.  1.
         22    1    1    2    0    0 -0.13017166658E+02  0.73174002557E+02  0.19109685077E+02  0.76740219844E+02  0.00000000000E+00 0.  1.
         22    1    1    2    0    0 -0.40804234931E+01  0.16201333892E+02 -0.96935622323E+02  0.98364871529E+02  0.00000000000E+00 0. -1.
</event>
<event>
 6    1  0.4069520E-005  0.3070987E+03  0.7818608E-02  0.1150458E+00
          2   -1    0    0  502    0  0.00000000000E+00  0.00000000000E+00  0.50005175220E+03  0.50005175220E+03  0.00000000000E+00 0.  1.
          1   -1    0    0  501    0 -0.00000000000E+00 -0.00000000000E+00 -0.47529602921E+03  0.47529602921E+03  0.00000000000E+00 0. -1.
          2    1    1    2  501    0  0.38694925052E+02 -0.15255582465E+03  0.92204892298E+02  0.18240701473E+03  0.00000000000E+00 0.  1.
          1    1    1    2  502    0  0.53354920018E+01  0.40451038245E+02 -0.40766257580E+03  0.40969931618E+03  0.00000000000E+00 0. -1.
         22    1    1    2    0    0 -0.77793458111E+02  0.77538568534E+02  0.30287692353E+03  0.32217771888E+03  0.00000000000E+00 0.  1.
         22    1    1    2    0    0  0.33763041057E+02  0.34566217875E+02  0.37336482959E+02  0.61063731620E+02  0.00000000000E+00 0.  1.
</event>
<event>
 6    1  0.4069520E-005  0.9992443E+02  0.7818608E-02  0.1338665E+00
          2   -1    0    0  502    0  0.00000000000E+00  0.00000000000E+00  0.90721809103E+03  0.90721809103E+03  0.00000000000E+00 0. -1.
          1   -1    0    0  501    0 -0.00000000000E+00 -0.00000000000E+00 -0.37231023519E+02  0.37231023519E+02  0.00000000000E+00 0. -1.
          2    1    1    2  501    0 -0.28693953021E+02 -0.56019574870E+00  0.24385046962E-01  0.28699431246E+02  0.00000000000E+00 0. -1.
          1    1    1    2  502    0  0.44138664924E+02  0.44431626829E+02  0.67853312610E+03  0.68141734233E+03  0.00000000000E+00 0. -1.
         22    1    1    2    0    0 -0.49560066750E+02 -0.50213731282E+02  0.44620545953E+02  0.83478213605E+02  0.00000000000E+00 0. -1.
         22    1    1    2    0    0  0.34115354847E+02  0.63423002013E+01  0.14680901041E+03  0.15085412737E+03  0.00000000000E+00 0. -1.
</event>
<event>
 6    1  0.4069520E-005  0.1289456E+03  0.7818608E-02  0.1361898E+00
          2   -1    0    0  502    0  0.00000000000E+00  0.00000000000E+00  0.63545291953E+02  0.63545291953E+02  0.00000000000E+00 0.  1.
          1   -1    0    0  501    0 -0.00000000000E+00 -0.00000000000E+00 -0.24347417972E+03  0.24347417972E+03  0.00000000000E+00 0.  1.
          2    1    1    2  501    0 -0.65823802412E+02 -0.19189597634E+02 -0.47244429250E+02  0.83264936897E+02  0.00000000000E+00 0.  1.
          1    1    1    2  502    0  0.34447315164E+02 -0.85464009040E+01 -0.61665877206E+02  0.71150115264E+02  0.00000000000E+00 0.  1.
         22    1    1    2    0    0 -0.94071079128E+01  0.54356755436E+01  0.35104848384E+02  0.36747661530E+02  0.00000000000E+00 0. -1.
         22    1    1    2    0    0  0.40783595160E+02  0.22300322995E+02 -0.10612342970E+03  0.11585675798E+03  0.00000000000E+00 0.  1.
</event>
<event>
 6    1  0.4069520E-005  0.9557459E+02  0.7818608E-02  0.1291650E+00
          2   -1    0    0  502    0  0.00000000000E+00  0.00000000000E+00  0.43780298919E+03  0.43780298919E+03  0.00000000000E+00 0. -1.
          1   -1    0    0  501    0 -0.00000000000E+00 -0.00000000000E+00 -0.16036705963E+03  0.16036705963E+03  0.00000000000E+00 0. -1.
          2    1    1    2  501    0  0.59363323033E+02  0.64040884947E+02  0.59466564404E+02  0.10564805416E+03  0.00000000000E+00 0. -1.
          1    1    1    2  502    0 -0.52039297381E+02 -0.10242875329E+02 -0.11882770241E+03  0.13012696810E+03  0.00000000000E+00 0. -1.
         22    1    1    2    0    0 -0.24366608437E+02 -0.84327476145E+02  0.29561797336E+03  0.30837451421E+03  0.00000000000E+00 0. -1.
         22    1    1    2    0    0  0.17042582786E+02  0.30529466528E+02  0.41179094210E+02  0.54020512349E+02  0.00000000000E+00 0. -1.
</event>
<event>
 6    1  0.4069520E-005  0.1011896E+03  0.7818608E-02  0.1346139E+00
          2   -1    0    0  502    0  0.00000000000E+00  0.00000000000E+00  0.22601507676E+03  0.22601507676E+03  0.00000000000E+00 0. -1.
          1   -1    0    0  501    0 -0.00000000000E+00 -0.00000000000E+00 -0.13257607827E+03  0.13257607827E+03  0.00000000000E+00 0. -1.
          2    1    1    2  501    0  0.35344574886E+02 -0.35698045238E+02 -0.92425823353E+02  0.10519563789E+03  0.00000000000E+00 0. -1.
          1    1    1    2  502    0 -0.40555412575E+02  0.29436087402E+02  0.47830756213E+02  0.69274858142E+02  0.00000000000E+00 0. -1.
         22    1    1    2    0    0  0.32166227302E+01 -0.29193242339E+02  0.14498983981E+03  0.14793459943E+03  0.00000000000E+00 0. -1.
         22    1    1    2    0    0  0.19942149588E+01  0.35455200175E+02 -0.69557741882E+01  0.36186059571E+02  0.00000000000E+00 0. -1.
</event>
<event>
 6    1  0.4069520E-005  0.2707423E+03  0.7818608E-02  0.1167927E+00
          2   -1    0    0  502    0  0.00000000000E+00  0.00000000000E+00  0.89389142422E+03  0.89389142422E+03  0.00000000000E+00 0.  1.
          1   -1    0    0  501    0 -0.00000000000E+00 -0.00000000000E+00 -0.20587869550E+03  0.20587869550E+03  0.00000000000E+00 0.  1.
          2    1    1    2  501    0 -0.39327491285E+02  0.99576039120E+02  0.12351793413E+03  0.16345861613E+03  0.00000000000E+00 0.  1.
          1    1    1    2  502    0  0.35710726336E+02  0.44952388480E+02 -0.16918817038E+03  0.17866339917E+03  0.00000000000E+00 0.  1.
         22    1    1    2    0    0 -0.46509777984E+02 -0.12811437902E+03  0.53230044780E+03  0.54947267474E+03  0.00000000000E+00 0.  1.
         22    1    1    2    0    0  0.50126542933E+02 -0.16414048583E+02  0.20138251717E+03  0.20817542967E+03  0.00000000000E+00 0. -1.
</event>
<event>
 6    1  0.4069520E-005  0.1614321E+03  0.7818608E-02  0.1316573E+00
          2   -1    0    0  502    0  0.00000000000E+00  0.00000000000E+00  0.77551025559E+02  0.77551025559E+02  0.00000000000E+00 0. -1.
          1   -1    0    0  501    0 -0.00000000000E+00 -0.00000000000E+00 -0.63472476378E+03  0.63472476378E+03  0.00000000000E+00 0. -1.
          2    1    1    2  501    0  0.12352913568E+02  0.40539399769E+02  0.14454634219E+00  0.42379928043E+02  0.00000000000E+00 0. -1.
          1    1    1    2  502    0  0.32258521932E+02  0.53613036136E+02 -0.49395088171E+03  0.49789802513E+03  0.00000000000E+00 0. -1.
         22    1    1    2    0    0  0.23421447853E+01  0.11928426635E+02  0.23911536940E+02  0.26824142167E+02  0.00000000000E+00 0. -1.
         22    1    1    2    0    0 -0.46953580286E+02 -0.10608086254E+03 -0.87278939788E+02  0.14517369400E+03  0.00000000000E+00 0. -1.
</event>
<event>
 6    1  0.4069520E-005  0.1819565E+03  0.7818608E-02  0.1238545E+00
          2   -1    0    0  502    0  0.00000000000E+00  0.00000000000E+00  0.19882780888E+02  0.19882780888E+02  0.00000000000E+00 0. -1.
          1   -1    0    0  501    0 -0.00000000000E+00 -0.00000000000E+00 -0.21910754914E+04  0.21910754914E+04  0.00000000000E+00 0. -1.
          2    1    1    2  501    0  0.87526119915E+02  0.36107125917E+02 -0.64575199622E+03  0.65265625473E+03  0.00000000000E+00 0. -1.
          1    1    1    2  502    0 -0.13561346766E+03 -0.88980880345E+02 -0.98076572580E+03  0.99408753065E+03  0.00000000000E+00 0. -1.
         22    1    1    2    0    0  0.85681384671E+02  0.56306732779E+02 -0.46330946973E+03  0.47451808456E+03  0.00000000000E+00 0.  1.
         22    1    1    2    0    0 -0.37594036924E+02 -0.34329783508E+01 -0.81365518786E+02  0.89696402380E+02  0.00000000000E+00 0.  1.
</event>
<event>
 6    1  0.4069520E-005  0.2356285E+03  0.7818608E-02  0.1215934E+00
          2   -1    0    0  502    0  0.00000000000E+00  0.00000000000E+00  0.29415104752E+03  0.29415104752E+03  0.00000000000E+00 0.  1.
          1   -1    0    0  501    0 -0.00000000000E+00 -0.00000000000E+00 -0.67525843671E+03  0.67525843671E+03  0.00000000000E+00 0.  1.
          2    1    1    2  501    0 -0.72646718082E+02  0.86498535800E+02 -0.25075779852E+02  0.11570798191E+03  0.00000000000E+00 0.  1.
          1    1    1    2  502    0  0.15358491501E+03 -0.84378111954E+02 -0.56755623160E+03  0.59399332313E+03  0.00000000000E+00 0.  1.
         22    1    1    2    0    0 -0.94141345733E+02 -0.26571387346E+02  0.83222569282E+02  0.12843141220E+03  0.00000000000E+00 0.  1.
         22    1    1    2    0    0  0.13203148802E+02  0.24450963501E+02  0.12830205297E+03  0.13127676699E+03  0.00000000000E+00 0.  1.
</event>
<event>
 6    1  0.4069520E-005  0.1550702E+03  0.7818608E-02  0.1225353E+00
          2   -1    0    0  502    0  0.00000000000E+00  0.00000000000E+00  0.71403142685E+03  0.71403142685E+03  0.00000000000E+00 0. -1.
          1   -1    0    0  501    0 -0.00000000000E+00 -0.00000000000E+00 -0.11837017816E+03  0.11837017816E+03  0.00000000000E+00 0. -1.
          2    1    1    2  501    0 -0.13767792741E+02 -0.72040312811E+02  0.26253226562E+03  0.27258493957E+03  0.00000000000E+00 0. -1.
          1    1    1    2  502    0 -0.34702424777E+02 -0.20307997734E+02 -0.93846088143E+02  0.10209682325E+03  0.00000000000E+00 0. -1.
         22    1    1    2    0    0  0.74797408127E+02  0.15232259877E+02  0.14068794510E+03  0.16006177526E+03  0.00000000000E+00 0. -1.
         22    1    1    2    0    0 -0.26327190609E+02  0.77116050668E+02  0.28628712611E+03  0.29765806694E+03  0.00000000000E+00 0. -1.
</event>
<event>
 6    1  0.4069520E-005  0.9577992E+02  0.7818608E-02  0.1291036E+00
          2   -1    0    0  502    0  0.00000000000E+00  0.00000000000E+00  0.69274564038E+03  0.69274564038E+03  0.00000000000E+00 0. -1.
          1   -1    0    0  501    0 -0.00000000000E+00 -0.00000000000E+00 -0.89660647309E+02  0.89660647309E+02  0.00000000000E+00 0. -1.
          2    1    1    2  501    0 -0.28442260270E+02 -0.48675132608E+02  0.20480248113E+03  0.21242007198E+03  0.00000000000E+00 0. -1.
          1    1    1    2  502    0  0.58960404197E+02 -0.15425038302E+01 -0.63752440010E+02  0.86850919330E+02  0.00000000000E+00 0. -1.
         22    1    1    2    0    0 -0.25436898176E+02  0.93637270494E+02  0.33626034920E+03  0.34997999466E+03  0.00000000000E+00 0. -1.
         22    1    1    2    0    0 -0.50812457509E+01 -0.43419634056E+02  0.12577460276E+03  0.13315530173E+03  0.00000000000E+00 0. -1.
</event>
<event>
 6    1  0.4069520E-005  0.1485153E+03  0.7818608E-02  0.1218159E+00
          2   -1    0    0  502    0  0.00000000000E+00  0.00000000000E+00  0.28608907536E+03  0.28608907536E+03  0.00000000000E+00 0.  1.
          1   -1    0    0  501    0 -0.00000000000E+00 -0.00000000000E+00 -0.13695186748E+03  0.13695186748E+03  0.00000000000E+00 0.  1.
          2    1    1    2  501    0  0.77674098449E+02 -0.61338530212E+02 -0.42440203989E+02  0.10768867987E+03  0.00000000000E+00 0.  1.
          1    1    1    2  502    0 -0.51605111492E+02 -0.36900222637E+01 -0.22188795288E+02  0.56294284193E+02  0.00000000000E+00 0.  1.
         22    1    1    2    0    0 -0.69418764067E+02  0.73254724687E+02  0.16383817883E+03  0.19242704679E+03  0.00000000000E+00 0.  1.
         22    1    1    2    0    0  0.43349777111E+02 -0.82261722117E+01  0.49928028329E+02  0.66630931989E+02  0.00000000000E+00 0. -1.
</event>
<event>
 6    1  0.4069520E-005  0.1669873E+03  0.7818608E-02  0.1183992E+00
          2   -1    0    0  502    0  0.00000000000E+00  0.00000000000E+00  0.87124798700E+03  0.87124798700E+03  0.00000000000E+00 0.  1.
          1   -1    0    0  501    0 -0.00000000000E+00 -0.00000000000E+00 -0.13279375684E+03  0.13279375684E+03  0.00000000000E+00 0.  1.
          2    1    1    2  501    0 -0.21088205865E+03  0.33512175616E+02  0.53337673463E+02  0.22008910919E+03  0.00000000000E+00 0.  1.
          1    1    1    2  502    0  0.79351973059E+02  0.12207450019E+02  0.78461176366E+01  0.80667955387E+02  0.00000000000E+00 0.  1.
         22    1    1    2    0    0 -0.61822687793E+01  0.14610649947E+02  0.88546456687E+01  0.18168552201E+02  0.00000000000E+00 0.  1.
         22    1    1    2    0    0  0.13771235437E+03 -0.60330275582E+02  0.66841579339E+03  0.68511612706E+03  0.00000000000E+00 0.  1.
</event>
<event>
 6    1  0.4069520E-005  0.2825124E+03  0.7818608E-02  0.1095026E+00
          2   -1    0    0  502    0  0.00000000000E+00  0.00000000000E+00  0.43271899690E+03  0.43271899690E+03  0.00000000000E+00 0.  1.
          1   -1    0    0  501    0 -0.00000000000E+00 -0.00000000000E+00 -0.23608515914E+03  0.23608515914E+03  0.00000000000E+00 0.  1.
          2    1    1    2  501    0  0.17838678727E+02 -0.17696482254E+02  0.20890404387E+02  0.32677101132E+02  0.00000000000E+00 0.  1.
          1    1    1    2  502    0 -0.27655674837E+03  0.24942276723E+02  0.21025498809E+03  0.34830003195E+03  0.00000000000E+00 0.  1.
         22    1    1    2    0    0  0.27194904076E+03 -0.34657716116E+01 -0.33558805487E+02  0.27403373108E+03  0.00000000000E+00 0.  1.
         22    1    1    2    0    0 -0.13230971123E+02 -0.37800228568E+01 -0.95274922747E+00  0.13793291875E+02  0.00000000000E+00 0.  1.
</event>
<event>
 6    1  0.4069520E-005  0.4704348E+03  0.7818608E-02  0.1153739E+00
          2   -1    0    0  502    0  0.00000000000E+00  0.00000000000E+00  0.82398774657E+02  0.82398774657E+02  0.00000000000E+00 0. -1.
          1   -1    0    0  501    0 -0.00000000000E+00 -0.00000000000E+00 -0.10321239157E+04  0.10321239157E+04  0.00000000000E+00 0. -1.
          2    1    1    2  501    0  0.11732988590E+03  0.18124235918E+03 -0.44148569153E+03  0.49145163619E+03  0.00000000000E+00 0. -1.
          1    1    1    2  502    0 -0.18636337395E+02  0.16332091421E+02 -0.27896298404E+03  0.28006141602E+03  0.00000000000E+00 0. -1.
         22    1    1    2    0    0 -0.10603043890E+03 -0.20947769911E+03 -0.23044182399E+03  0.32897841060E+03  0.00000000000E+00 0. -1.
         22    1    1    2    0    0  0.73368903993E+01  0.11903248511E+02  0.11653585187E+01  0.14031227542E+02  0.00000000000E+00 0.  1.
</event>
<event>
 6    1  0.4069520E-005  0.5918018E+02  0.7818608E-02  0.1404406E+00
          2   -1    0    0  502    0  0.00000000000E+00  0.00000000000E+00  0.35730674182E+02  0.35730674182E+02  0.00000000000E+00 0.  1.
          1   -1    0    0  501    0 -0.00000000000E+00 -0.00000000000E+00 -0.93243805241E+03  0.93243805241E+03  0.00000000000E+00 0. -1.
          2    1    1    2  501    0 -0.46316846579E+02  0.18371706562E+02 -0.15375516205E+03  0.16162741022E+03  0.00000000000E+00 0.  1.
          1    1    1    2  502    0  0.29833243033E+02 -0.96070755494E+01 -0.64451642538E+03  0.64527803377E+03  0.00000000000E+00 0. -1.
         22    1    1    2    0    0  0.53091004151E+02 -0.74868069105E+01  0.27143986215E+01  0.53684960272E+02  0.00000000000E+00 0.  1.
         22    1    1    2    0    0 -0.36607400606E+02 -0.12778241020E+01 -0.10115018943E+03  0.10757832233E+03  0.00000000000E+00 0.  1.
</event>
<event>
 6    1  0.4069520E-005  0.1385225E+03  0.7818608E-02  0.1216520E+00
          2   -1    0    0  502    0  0.00000000000E+00  0.00000000000E+00  0.57515097450E+03  0.57515097450E+03  0.00000000000E+00 0.  1.
          1   -1    0    0  501    0 -0.00000000000E+00 -0.00000000000E+00 -0.38571671725E+03  0.38571671725E+03  0.00000000000E+00 0. -1.
          2    1    1    2  501    0  0.81595497096E+02 -0.10009465097E+03  0.18106831642E+03  0.22240166256E+03  0.00000000000E+00 0.  1.
          1    1    1    2  502    0 -0.77772896974E+02 -0.54381342969E+01 -0.34245523840E+03  0.35121757803E+03  0.00000000000E+00 0. -1.
         22    1    1    2    0    0 -0.36157217099E+02  0.12153463903E+03  0.29040325573E+03  0.31687862625E+03  0.00000000000E+00 0.  1.
         22    1    1    2    0    0  0.32334616978E+02 -0.16001853763E+02  0.60417923494E+02  0.70369824913E+02  0.00000000000E+00 0. -1.
</event>
<event>
 6    1  0.4069520E-005  0.6596540E+02  0.7818608E-02  0.1480581E+00
          2   -1    0    0  502    0  0.00000000000E+00  0.00000000000E+00  0.51957387675E+02  0.51957387675E+02  0.00000000000E+00 0.  1.
          1   -1    0    0  501    0 -0.00000000000E+00 -0.00000000000E+00 -0.10034473909E+04  0.10034473909E+04  0.00000000000E+00 0. -1.
          2    1    1    2  501    0  0.20849850801E+02  0.23397648682E+02 -0.77941824824E+02  0.84006513433E+02  0.00000000000E+00 0.  1.
          1    1    1    2  502    0 -0.11968310208E+02 -0.49225794195E+02 -0.83751150257E+03  0.83904227319E+03  0.00000000000E+00 0. -1.
         22    1    1    2    0    0 -0.21913207807E+02  0.24747895935E+02 -0.79962337385E+02  0.86525270469E+02  0.00000000000E+00 0.  1.
         22    1    1    2    0    0  0.13031667214E+02  0.10802495773E+01  0.43925661550E+02  0.45830721488E+02  0.00000000000E+00 0.  1.
</event>
<event>
 6    1  0.4069520E-005  0.2221965E+03  0.7818608E-02  0.1209857E+00
          2   -1    0    0  502    0  0.00000000000E+00  0.00000000000E+00  0.10942193584E+03  0.10942193584E+03  0.00000000000E+00 0. -1.
          1   -1    0    0  501    0 -0.00000000000E+00 -0.00000000000E+00 -0.21341806850E+04  0.21341806850E+04  0.00000000000E+00 0. -1.
          2    1    1    2  501    0 -0.13494727429E+03 -0.25067396675E+02 -0.10746310743E+03  0.17431999505E+03  0.00000000000E+00 0. -1.
          1    1    1    2  502    0  0.13832698660E+03 -0.16200832330E+02 -0.19331461829E+04  0.19381565950E+04  0.00000000000E+00 0. -1.
         22    1    1    2    0    0 -0.41070019363E+02  0.42364067744E+02  0.52179271124E+02  0.78766344725E+02  0.00000000000E+00 0. -1.
         22    1    1    2    0    0  0.37690307054E+02 -0.10958387386E+01 -0.36328730005E+02  0.52359686135E+02  0.00000000000E+00 0.  1.
</event>
<event>
 6    1  0.4069520E-005  0.7929584E+02  0.7818608E-02  0.1332456E+00
          2   -1    0    0  502    0  0.00000000000E+00  0.00000000000E+00  0.16987155916E+03  0.16987155916E+03  0.00000000000E+00 0. -1.
          1   -1    0    0  501    0 -0.00000000000E+00 -0.00000000000E+00 -0.30699223027E+03  0.30699223027E+03  0.00000000000E+00 0. -1.
          2    1    1    2  501    0  0.78553662564E+02 -0.36342976809E+02 -0.60645117071E+02  0.10568500409E+03  0.00000000000E+00 0. -1.
          1    1    1    2  502    0 -0.21028076930E+02  0.16500090372E+02 -0.19107447602E+03  0.19293493304E+03  0.00000000000E+00 0. -1.
         22    1    1    2    0    0  0.11891320635E+02 -0.90206978901E+01 -0.19471569721E+02  0.24534027885E+02  0.00000000000E+00 0. -1.
         22    1    1    2    0    0 -0.69416906269E+02  0.28863584327E+02  0.13407049170E+03  0.15370982441E+03  0.00000000000E+00 0. -1.
</event>
<event>
 6    1  0.4069520E-005  0.2386496E+03  0.7818608E-02  0.1121222E+00
          2   -1    0    0  502    0  0.00000000000E+00  0.00000000000E+00  0.14125983059E+04  0.14125983059E+04  0.00000000000E+00 0. -1.
          1   -1    0    0  501    0 -0.00000000000E+00 -0.00000000000E+00 -0.11953273248E+03  0.11953273248E+03  0.00000000000E+00 0. -1.
          2    1    1    2  501    0 -0.77175669222E+02  0.94150744823E+02  0.11601762713E+03  0.16816817914E+03  0.00000000000E+00 0. -1.
          1    1    1    2  502    0 -0.13190438531E+03  0.15002762709E+03  0.81492415118E+02  0.21575001616E+03  0.00000000000E+00 0. -1.
         22    1    1    2    0    0  0.21997420277E+03 -0.24846388646E+03  0.10643922265E+04  0.11149232102E+04  0.00000000000E+00 0. -1.
         22    1    1    2    0    0 -0.10894148245E+02  0.42855145433E+01  0.31163304710E+02  0.33289632941E+02  0.00000000000E+00 0.  1.
</event>
<event>
 6    1  0.4069520E-005  0.9053783E+02  0.7818608E-02  0.1318109E+00
          2   -1    0    0  502    0  0.00000000000E+00  0.00000000000E+00  0.14077317744E+03  0.14077317744E+03  0.00000000000E+00 0. -1.
          1   -1    0    0  501    0 -0.00000000000E+00 -0.00000000000E+00 -0.21581026967E+03  0.21581026967E+03  0.00000000000E+00 0. -1.
          2    1    1    2  501    0  0.10597851773E+02  0.44353791416E+02  0.12938582059E+02  0.47402322527E+02  0.00000000000E+00 0. -1.
          1    1    1    2  502    0 -0.27487663447E+02 -0.46478640727E+02 -0.15936364053E+03  0.16826350052E+03  0.00000000000E+00 0. -1.
         22    1    1    2    0    0 -0.36231480985E+02  0.33039892631E+02  0.61516162767E+02  0.78667610877E+02  0.00000000000E+00 0. -1.
         22    1    1    2    0    0  0.53121292659E+02 -0.30915043320E+02  0.98718034706E+01  0.62250013181E+02  0.00000000000E+00 0. -1.
</event>
<event>
 6    1  0.4069520E-005  0.1597761E+03  0.7818608E-02  0.1277089E+00
          2   -1    0    0  502    0  0.00000000000E+00  0.00000000000E+00  0.13163683127E+03  0.13163683127E+03  0.00000000000E+00 0. -1.
          1   -1    0    0  501    0 -0.00000000000E+00 -0.00000000000E+00 -0.44316879757E+03  0.44316879757E+03  0.00000000000E+00 0. -1.
          2    1    1    2  501    0  0.73816660750E+02 -0.10935633856E+03 -0.28077707822E+03  0.31023132633E+03  0.00000000000E+00 0. -1.
          1    1    1    2  502    0 -0.77198028374E+02  0.11145648209E+03  0.62916070970E+01  0.13572644291E+03  0.00000000000E+00 0. -1.
         22    1    1    2    0    0  0.15889149300E+02 -0.20659429295E+02  0.40486048203E+02  0.48149737106E+02  0.00000000000E+00 0.  1.
         22    1    1    2    0    0 -0.12507781676E+02  0.18559285764E+02 -0.77532543386E+02  0.80698122497E+02  0.00000000000E+00 0.  1.
</event>
<event>
 6    1  0.4069520E-005  0.1015609E+03  0.7818608E-02  0.1291801E+00
          2   -1    0    0  502    0  0.00000000000E+00  0.00000000000E+00  0.58957421108E+03  0.58957421108E+03  0.00000000000E+00 0.  1.
          1   -1    0    0  501    0 -0.00000000000E+00 -0.00000000000E+00 -0.21300712251E+03  0.21300712251E+03  0.00000000000E+00 0.  1.
          2    1    1    2  501    0 -0.14806538692E+01  0.38512564130E+02  0.19911012056E+02  0.43380391110E+02  0.00000000000E+00 0.  1.
          1    1    1    2  502    0 -0.21530815530E+02 -0.19457693364E+01 -0.19330507389E+03  0.19451018900E+03  0.00000000000E+00 0.  1.
         22    1    1    2    0    0 -0.38355814030E+02  0.14198418358E+02  0.10550161762E+03  0.11315191061E+03  0.00000000000E+00 0.  1.
         22    1    1    2    0    0  0.61367283429E+02 -0.50765213151E+02  0.44445953278E+03  0.45153884287E+03  0.00000000000E+00 0.  1.
</event>
<event>
 6    1  0.4069520E-005  0.1097716E+03  0.7818608E-02  0.1316955E+00
          2   -1    0    0  502    0  0.00000000000E+00  0.00000000000E+00  0.27234770716E+03  0.27234770716E+03  0.00000000000E+00 0. -1.
          1   -1    0    0  501    0 -0.00000000000E+00 -0.00000000000E+00 -0.34834125963E+03  0.34834125963E+03  0.00000000000E+00 0. -1.
          2    1    1    2  501    0  0.58966300174E+01 -0.41030027973E+02  0.26274813169E+02  0.49077482088E+02  0.00000000000E+00 0. -1.
          1    1    1    2  502    0 -0.63293388196E+02  0.49811961340E+02 -0.31180302223E+03  0.32203790019E+03  0.00000000000E+00 0. -1.
         22    1    1    2    0    0  0.90072701245E+02 -0.28950123543E+02  0.12536927375E+03  0.15706258613E+03  0.00000000000E+00 0. -1.
         22    1    1    2    0    0 -0.32675943067E+02  0.20168190176E+02  0.84165382849E+02  0.92510998375E+02  0.00000000000E+00 0. -1.
</event>
<event>
 6    1  0.5387124E-005  0.7303577E+02  0.7818608E-02  0.1351366E+00
          2   -1    0    0  502    0  0.00000000000E+00  0.00000000000E+00  0.23967237316E+03  0.23967237316E+03  0.00000000000E+00 0.  1.
          1   -1    0    0  501    0 -0.00000000000E+00 -0.00000000000E+00 -0.15529369781E+04  0.15529369781E+04  0.00000000000E+00 0. -1.
          2    1    1    2  501    0  0.15367936458E+01 -0.20917658249E+02 -0.73509369647E+00  0.20986913162E+02  0.00000000000E+00 0.  1.
          1    1    1    2  502    0 -0.15392392358E+02 -0.19902777745E+02 -0.15236317441E+04  0.15238394725E+04  0.00000000000E+00 0. -1.
         22    1    1    2    0    0 -0.74797449868E+01 -0.33471430789E+02  0.15839052255E+02  0.37777755895E+02  0.00000000000E+00 0. -1.
         22    1    1    2    0    0  0.21335343699E+02  0.74291866783E+02  0.19526318066E+03  0.21000520965E+03  0.00000000000E+00 0.  1.
</event>
<event>
 6    1  0.4069520E-005  0.8207335E+02  0.7818608E-02  0.1325806E+00
          2   -1    0    0  502    0  0.00000000000E+00  0.00000000000E+00  0.86572769336E+02  0.86572769336E+02  0.00000000000E+00 0.  1.
          1   -1    0    0  501    0 -0.00000000000E+00 -0.00000000000E+00 -0.12980168087E+03  0.12980168087E+03  0.00000000000E+00 0.  1.
          2    1    1    2  501    0 -0.26526043541E+01  0.27031610761E+02  0.20606673527E+01  0.27239505138E+02  0.00000000000E+00 0.  1.
          1    1    1    2  502    0  0.15073090336E+02  0.13546683895E+02 -0.50371373677E+02  0.54295358760E+02  0.00000000000E+00 0.  1.
         22    1    1    2    0    0 -0.35128841449E+02 -0.79639765555E+02  0.15646349745E+02  0.88438317598E+02  0.00000000000E+00 0.  1.
         22    1    1    2    0    0  0.22708355467E+02  0.39061470899E+02 -0.10564554960E+02  0.46401268714E+02  0.00000000000E+00 0.  1.
</event>
<event>
 6    1  0.4069520E-005  0.9068553E+02  0.7818608E-02  0.1313423E+00
          2   -1    0    0  502    0  0.00000000000E+00  0.00000000000E+00  0.12630789562E+03  0.12630789562E+03  0.00000000000E+00 0.  1.
          1   -1    0    0  501    0 -0.00000000000E+00 -0.00000000000E+00 -0.14212798690E+03  0.14212798690E+03  0.00000000000E+00 0.  1.
          2    1    1    2  501    0 -0.50359125303E+01 -0.23641945668E+02 -0.89745198356E+01  0.25784569344E+02  0.00000000000E+00 0.  1.
          1    1    1    2  502    0 -0.44392304646E+02 -0.30104631615E+02 -0.68021951176E+02  0.86625350783E+02  0.00000000000E+00 0.  1.
         22    1    1    2    0    0  0.40632956388E+02 -0.33293106714E+02  0.39973635614E+02  0.66010299528E+02  0.00000000000E+00 0. -1.
         22    1    1    2    0    0  0.87952607882E+01  0.87039683997E+02  0.21202744118E+02  0.90015662864E+02  0.00000000000E+00 0.  1.
</event>
<event>
 6    1  0.4069520E-005  0.1954388E+03  0.7818608E-02  0.1252711E+00
          2   -1    0    0  502    0  0.00000000000E+00  0.00000000000E+00  0.16226261086E+03  0.16226261086E+03  0.00000000000E+00 0.  1.
          1   -1    0    0  501    0 -0.00000000000E+00 -0.00000000000E+00 -0.54949852142E+03  0.54949852142E+03  0.00000000000E+00 0.  1.
          2    1    1    2  501    0  0.34955391870E+02 -0.15659094151E+01  0.10476879120E+02  0.36525285614E+02  0.00000000000E+00 0.  1.
          1    1    1    2  502    0 -0.76977782088E+02  0.15012978426E+03 -0.44278576987E+03  0.47383939163E+03  0.00000000000E+00 0.  1.
         22    1    1    2    0    0  0.29826133366E+02 -0.16795569537E+03  0.50407302086E+02  0.17787526512E+03  0.00000000000E+00 0.  1.
         22    1    1    2    0    0  0.12196256852E+02  0.19391820531E+02 -0.53343218927E+01  0.23521189909E+02  0.00000000000E+00 0. -1.
</event>
<event>
 6    1  0.4069520E-005  0.9296393E+02  0.7818608E-02  0.1365501E+00
          2   -1    0    0  502    0  0.00000000000E+00  0.00000000000E+00  0.43674260599E+03  0.43674260599E+03  0.00000000000E+00 0.  1.
          1   -1    0    0  501    0 -0.00000000000E+00 -0.00000000000E+00 -0.12838700062E+04  0.12838700062E+04  0.00000000000E+00 0. -1.
          2    1    1    2  501    0 -0.11436080772E+02 -0.20621880891E+02  0.65484638855E+02  0.69600889656E+02  0.00000000000E+00 0.  1.
          1    1    1    2  502    0  0.56461055506E+02  0.70361440466E+02 -0.12671557357E+04  0.12703630353E+04  0.00000000000E+00 0. -1.
         22    1    1    2    0    0 -0.71503241708E+02 -0.56382208640E+02  0.33479014246E+03  0.34695259981E+03  0.00000000000E+00 0.  1.
         22    1    1    2    0    0  0.26478266974E+02  0.66426490640E+01  0.19753554106E+02  0.33696087434E+02  0.00000000000E+00 0.  1.
</event>
<event>
 6    1  0.4069520E-005  0.1553326E+03  0.7818608E-02  0.1260583E+00
          2   -1    0    0  502    0  0.00000000000E+00  0.00000000000E+00  0.19044139184E+03  0.19044139184E+03  0.00000000000E+00 0. -1.
          1   -1    0    0  501    0 -0.00000000000E+00 -0.00000000000E+00 -0.16664282491E+03  0.16664282491E+03  0.00000000000E+00 0. -1.
          2    1    1    2  501    0 -0.57188412829E+02  0.35616085067E+02  0.91706347950E+02  0.11379399954E+03  0.00000000000E+00 0. -1.
          1    1    1    2  502    0  0.41950854363E+02 -0.32285200789E+01 -0.10273490287E+03  0.11101692569E+03  0.00000000000E+00 0. -1.
         22    1    1    2    0    0 -0.66364525943E+01 -0.64741826843E+02 -0.17108177376E+02  0.67292171753E+02  0.00000000000E+00 0. -1.
         22    1    1    2    0    0  0.21874011060E+02  0.32354261856E+02  0.51935299219E+02  0.64981119758E+02  0.00000000000E+00 0. -1.
</event>
<event>
 6    1  0.4069520E-005  0.1023635E+03  0.7818608E-02  0.1278119E+00
          2   -1    0    0  502    0  0.00000000000E+00  0.00000000000E+00  0.36563873396E+03  0.36563873396E+03  0.00000000000E+00 0.  1.
          1   -1    0    0  501    0 -0.00000000000E+00 -0.00000000000E+00 -0.86175882652E+02  0.86175882652E+02  0.00000000000E+00 0.  1.
          2    1    1    2  501    0  0.67780997709E+02  0.64977655696E+02  0.65737920982E+02  0.11462038931E+03  0.00000000000E+00 0.  1.
          1    1    1    2  502    0 -0.33864470387E+02 -0.37732458833E+02 -0.30956530769E+02  0.59404104248E+02  0.00000000000E+00 0.  1.
         22    1    1    2    0    0  0.37452118228E+02  0.20653210527E+02  0.56092970746E+02  0.70538199806E+02  0.00000000000E+00 0.  1.
         22    1    1    2    0    0 -0.71368645550E+02 -0.47898407390E+02  0.18858849034E+03  0.20725192324E+03  0.00000000000E+00 0.  1.
</event>
<event>
 6    1  0.4069520E-005  0.8290461E+02  0.7818608E-02  0.1420017E+00
          2   -1    0    0  502    0  0.00000000000E+00  0.00000000000E+00  0.76346252732E+02  0.76346252732E+02  0.00000000000E+00 0. -1.
          1   -1    0    0  501    0 -0.00000000000E+00 -0.00000000000E+00 -0.80911232817E+03  0.80911232817E+03  0.00000000000E+00 0. -1.
          2    1    1    2  501    0 -0.38166898065E+02 -0.45180121381E+02 -0.67213721765E+03  0.67473431425E+03  0.00000000000E+00 0. -1.
          1    1    1    2  502    0  0.29966897860E+02  0.45484101716E+02  0.25399690733E+02  0.60099607034E+02  0.00000000000E+00 0. -1.
         22    1    1    2    0    0  0.13339376024E+02 -0.15539737773E+02 -0.11536605952E+03  0.11716974905E+03  0.00000000000E+00 0.  1.
         22    1    1    2    0    0 -0.51393758188E+01  0.15235757437E+02  0.29337511009E+02  0.33454910562E+02  0.00000000000E+00 0.  1.
</event>
<event>
 6    1  0.4069520E-005  0.3359659E+03  0.7818608E-02  0.1150164E+00
          2   -1    0    0  502    0  0.00000000000E+00  0.00000000000E+00  0.12548615407E+04  0.12548615407E+04  0.00000000000E+00 0. -1.
          1   -1    0    0  501    0 -0.00000000000E+00 -0.00000000000E+00 -0.14786629821E+03  0.14786629821E+03  0.00000000000E+00 0. -1.
          2    1    1    2  501    0 -0.14468687605E+03  0.26677254855E+03  0.14218315455E+03  0.33513867906E+03  0.00000000000E+00 0. -1.
          1    1    1    2  502    0  0.17088107202E+03 -0.28286238587E+03  0.72157351253E+03  0.79364967341E+03  0.00000000000E+00 0. -1.
         22    1    1    2    0    0  0.15069504273E+02  0.22569011868E+02 -0.30534800376E-02  0.27137617159E+02  0.00000000000E+00 0.  1.
         22    1    1    2    0    0 -0.41263700241E+02 -0.64791745541E+01  0.24324162885E+03  0.24680186925E+03  0.00000000000E+00 0.  1.
</event>
<event>
 6    1  0.4069520E-005  0.9202144E+02  0.7818608E-02  0.1307393E+00
          2   -1    0    0  502    0  0.00000000000E+00  0.00000000000E+00  0.70562170182E+02  0.70562170182E+02  0.00000000000E+00 0.  1.
          1   -1    0    0  501    0 -0.00000000000E+00 -0.00000000000E+00 -0.33900099044E+03  0.33900099044E+03  0.00000000000E+00 0.  1.
          2    1    1    2  501    0 -0.25088963654E+02 -0.49351640556E+02 -0.15021613080E+02  0.57364530700E+02  0.00000000000E+00 0.  1.
          1    1    1    2  502    0  0.32370590193E+02  0.35088675554E+02 -0.22004564884E+03  0.22516473488E+03  0.00000000000E+00 0.  1.
         22    1    1    2    0    0  0.24534927445E+02 -0.47285013011E+02 -0.15511734869E+02  0.55483772752E+02  0.00000000000E+00 0.  1.
         22    1    1    2    0    0 -0.31816553983E+02  0.61547978014E+02 -0.17859823469E+02  0.71550122287E+02  0.00000000000E+00 0.  1.
</event>
<event>
 6    1  0.4069520E-005  0.1201963E+03  0.7818608E-02  0.1375208E+00
          2   -1    0    0  502    0  0.00000000000E+00  0.00000000000E+00  0.92899371564E+02  0.92899371564E+02  0.00000000000E+00 0. -1.
          1   -1    0    0  501    0 -0.00000000000E+00 -0.00000000000E+00 -0.25887808670E+03  0.25887808670E+03  0.00000000000E+00 0. -1.
          2    1    1    2  501    0  0.19825188529E+01  0.26544693430E+02 -0.66647122044E+02  0.71766217729E+02  0.00000000000E+00 0. -1.
          1    1    1    2  502    0 -0.90941725604E+02 -0.48408547241E+02 -0.29647628236E+02  0.10720432250E+03  0.00000000000E+00 0. -1.
         22    1    1    2    0    0  0.83634276881E+02  0.31209441338E+02 -0.10387579616E+03  0.13696314295E+03  0.00000000000E+00 0. -1.
         22    1    1    2    0    0  0.53249298700E+01 -0.93455875278E+01  0.34191831308E+02  0.35843775088E+02  0.00000000000E+00 0. -1.
</event>
<event>
 6    1  0.4069520E-005  0.9309189E+02  0.7818608E-02  0.1411666E+00
          2   -1    0    0  502    0  0.00000000000E+00  0.00000000000E+00  0.99658315267E+02  0.99658315267E+02  0.00000000000E+00 0. -1.
          1   -1    0    0  501    0 -0.00000000000E+00 -0.00000000000E+00 -0.12493899241E+03  0.12493899241E+03  0.00000000000E+00 0. -1.
          2    1    1    2  501    0  0.49933023141E+02 -0.34264236029E+01  0.29349145030E+01  0.50136422906E+02  0.00000000000E+00 0. -1.
          1    1    1    2  502    0 -0.28674161130E+02  0.85932961147E+01 -0.42066295633E+02  0.51629695746E+02  0.00000000000E+00 0. -1.
         22    1    1    2    0    0 -0.18363531999E+02  0.74283088627E+01 -0.52041228445E+02  0.55683826539E+02  0.00000000000E+00 0. -1.
         22    1    1    2    0    0 -0.28953300119E+01 -0.12595181375E+02  0.65891932429E+02  0.67147362487E+02  0.00000000000E+00 0. -1.
</event>
<event>
 6    1  0.4069520E-005  0.1051996E+03  0.7818608E-02  0.1313089E+00
          2   -1    0    0  502    0  0.00000000000E+00  0.00000000000E+00  0.45647211980E+03  0.45647211980E+03  0.00000000000E+00 0.  1.
          1   -1    0    0  501    0 -0.00000000000E+00 -0.00000000000E+00 -0.21105934832E+03  0.21105934832E+03  0.00000000000E+00 0.  1.
          2    1    1    2  501    0  0.11812168261E+02 -0.72872768636E+02  0.55458490853E+02  0.92334240320E+02  0.00000000000E+00 0.  1.
          1    1    1    2  502    0  0.24731171067E+02  0.83102838771E+02 -0.17150461921E+03  0.19217582326E+03  0.00000000000E+00 0.  1.
         22    1    1    2    0    0 -0.10040526966E+02  0.45681132401E+02  0.26007997763E+03  0.26425210085E+03  0.00000000000E+00 0.  1.
         22    1    1    2    0    0 -0.26502812362E+02 -0.55911202536E+02  0.10137892220E+03  0.11876930369E+03  0.00000000000E+00 0.  1.
</event>
<event>
 6    1  0.4069520E-005  0.1948218E+03  0.7818608E-02  0.1251363E+00
          2   -1    0    0  502    0  0.00000000000E+00  0.00000000000E+00  0.11939297701E+03  0.11939297701E+03  0.00000000000E+00 0.  1.
          1   -1    0    0  501    0 -0.00000000000E+00 -0.00000000000E+00 -0.76150914263E+03  0.76150914263E+03  0.00000000000E+00 0. -1.
          2    1    1    2  501    0 -0.67933536548E+02 -0.10278550296E+01 -0.10765373401E+02  0.68788917264E+02  0.00000000000E+00 0.  1.
          1    1    1    2  502    0  0.16668978257E+03 -0.81564920935E+02 -0.59980241567E+03  0.62785448774E+03  0.00000000000E+00 0. -1.
         22    1    1    2    0    0 -0.11207106574E+03  0.62919155078E+02 -0.64368770033E+02  0.14374311256E+03  0.00000000000E+00 0.  1.
         22    1    1    2    0    0  0.13314819721E+02  0.19673620887E+02  0.32820393481E+02  0.40515602072E+02  0.00000000000E+00 0.  1.
</event>
<event>
 6    1  0.4069520E-005  0.5810343E+02  0.7818608E-02  0.1410736E+00
          2   -1    0    0  502    0  0.00000000000E+00  0.00000000000E+00  0.10588192801E+03  0.10588192801E+03  0.00000000000E+00 0.  1.
          1   -1    0    0  501    0 -0.00000000000E+00 -0.00000000000E+00 -0.11322787377E+04  0.11322787377E+04  0.00000000000E+00 0.  1.
          2    1    1    2  501    0 -0.98446610516E+01 -0.22629793843E+02 -0.16261023024E+02  0.29554116302E+02  0.00000000000E+00 0.  1.
          1    1    1    2  502    0  0.29168645071E+02 -0.12584393575E+01 -0.10645033046E+04  0.10649036008E+04  0.00000000000E+00 0.  1.
         22    1    1    2    0    0 -0.28263540989E+02  0.48086235788E+02  0.86235957693E+02  0.10270226006E+03  0.00000000000E+00 0.  1.
         22    1    1    2    0    0  0.89395569692E+01 -0.24198002587E+02 -0.31868439742E+02  0.41000688526E+02  0.00000000000E+00 0.  1.
</event>
<event>
 6    1  0.4069520E-005  0.1970990E+03  0.7818608E-02  0.1255659E+00
          2   -1    0    0  502    0  0.00000000000E+00  0.00000000000E+00  0.23116773504E+03  0.23116773504E+03  0.00000000000E+00 0. -1.
          1   -1    0    0  501    0 -0.00000000000E+00 -0.00000000000E+00 -0.45470259837E+03  0.45470259837E+03  0.00000000000E+00 0.  1.
          2    1    1    2  501    0 -0.64932755919E+02 -0.76419974645E+02  0.57364104882E+02  0.11552885287E+03  0.00000000000E+00 0. -1.
          1    1    1    2  502    0 -0.30031608123E+02  0.10725120920E+03 -0.37246187835E+03  0.38875772685E+03  0.00000000000E+00 0.  1.
         22    1    1    2    0    0  0.17187642858E+02 -0.12178782182E+02  0.99037690360E+02  0.10125315755E+03  0.00000000000E+00 0. -1.
         22    1    1    2    0    0  0.77776721183E+02 -0.18652452375E+02 -0.74747802161E+01  0.80330596144E+02  0.00000000000E+00 0.  1.
</event>
<event>
 6    1  0.4069520E-005  0.7068638E+02  0.7818608E-02  0.1359708E+00
          2   -1    0    0  502    0  0.00000000000E+00  0.00000000000E+00  0.64396962408E+03  0.64396962408E+03  0.00000000000E+00 0.  1.
          1   -1    0    0  501    0 -0.00000000000E+00 -0.00000000000E+00 -0.90153998240E+02  0.90153998240E+02  0.00000000000E+00 0.  1.
          2    1    1    2  501    0  0.89086767913E+01  0.38266657856E+02  0.34335380745E+03  0.34559447148E+03  0.00000000000E+00 0.  1.
          1    1    1    2  502    0 -0.36797693243E+02  0.44116223572E+02 -0.55622058310E+02  0.79963271449E+02  0.00000000000E+00 0.  1.
         22    1    1    2    0    0  0.31427005596E+00  0.25349243135E+02  0.13178861112E+03  0.13420477232E+03  0.00000000000E+00 0.  1.
         22    1    1    2    0    0  0.27574746396E+02 -0.10773212456E+03  0.13429526558E+03  0.17436110707E+03  0.00000000000E+00 0. -1.
</event>
<event>
 6    1  0.4069520E-005  0.1251644E+03  0.7818608E-02  0.1265415E+00
          2   -1    0    0  502    0  0.00000000000E+00  0.00000000000E+00  0.12392292299E+03  0.12392292299E+03  0.00000000000E+00 0. -1.
          1   -1    0    0  501    0 -0.00000000000E+00 -0.00000000000E+00 -0.22426362469E+03  0.22426362469E+03  0.00000000000E+00 0. -1.
          2    1    1    2  501    0 -0.71935968650E+02 -0.83729560293E+02 -0.23112812062E+02  0.11278131465E+03  0.00000000000E+00 0. -1.
          1    1    1    2  502    0  0.74676334790E+02  0.63460675418E+02 -0.39412681831E+02  0.10562751437E+03  0.00000000000E+00 0. -1.
         22    1    1    2    0    0 -0.26620890350E+02 -0.43309346999E+02 -0.35159399690E+02  0.61810636035E+02  0.00000000000E+00 0. -1.
         22    1    1    2    0    0  0.23880524209E+02  0.63578231874E+02 -0.26558081208E+01  0.67967082632E+02  0.00000000000E+00 0. -1.
</event>
<event>
 6    1  0.4069520E-005  0.8284509E+02  0.7818608E-02  0.1342634E+00
          2   -1    0    0  502    0  0.00000000000E+00  0.00000000000E+00  0.11985834732E+02  0.11985834732E+02  0.00000000000E+00 0.  1.
          1   -1    0    0  501    0 -0.00000000000E+00 -0.00000000000E+00 -0.10337252647E+04  0.10337252647E+04  0.00000000000E+00 0.  1.
          2    1    1    2  501    0  0.19245839226E+02  0.83607562606E+01 -0.42892161328E+03  0.42943457582E+03  0.00000000000E+00 0.  1.
          1    1    1    2  502    0 -0.95739296161E+01 -0.34496116916E+02 -0.21289939061E+03  0.21588838026E+03  0.00000000000E+00 0.  1.
         22    1    1    2    0    0  0.40416720651E+02  0.46178844683E+02 -0.28190912533E+03  0.28851126833E+03  0.00000000000E+00 0.  1.
         22    1    1    2    0    0 -0.50088630261E+02 -0.20043484028E+02 -0.98009300795E+02  0.11187687507E+03  0.00000000000E+00 0.  1.
</event>
<event>
 6    1  0.4069520E-005  0.1792569E+03  0.7818608E-02  0.1239758E+00
          2   -1    0    0  502    0  0.00000000000E+00  0.00000000000E+00  0.96723501060E+03  0.96723501060E+03  0.00000000000E+00 0. -1.
          1   -1    0    0  501    0 -0.00000000000E+00 -0.00000000000E+00 -0.59228780943E+03  0.59228780943E+03  0.00000000000E+00 0. -1.
          2    1    1    2  501    0  0.51887575680E+02 -0.22133272349E+02  0.31824710064E+03  0.32320801246E+03  0.00000000000E+00 0. -1.
          1    1    1    2  502    0  0.95129693166E+01  0.10584268695E+03 -0.57450706392E+03  0.58425297386E+03  0.00000000000E+00 0. -1.
         22    1    1    2    0    0  0.35910363494E+02 -0.13935999561E+02  0.92355696684E+02  0.10006668277E+03  0.00000000000E+00 0. -1.
         22    1    1    2    0    0 -0.97310908491E+02 -0.69773415036E+02  0.53885146776E+03  0.55199515095E+03  0.00000000000E+00 0. -1.
</event>
<event>
 6    1  0.4069520E-005  0.6353417E+02  0.7818608E-02  0.1386752E+00
          2   -1    0    0  502    0  0.00000000000E+00  0.00000000000E+00  0.96949645736E+02  0.96949645736E+02  0.00000000000E+00 0. -1.
          1   -1    0    0  501    0 -0.00000000000E+00 -0.00000000000E+00 -0.36954804067E+03  0.36954804067E+03  0.00000000000E+00 0. -1.
          2    1    1    2  501    0 -0.15144095621E+02  0.39448472664E+02 -0.14504855140E+02  0.44675680748E+02  0.00000000000E+00 0. -1.
          1    1    1    2  502    0  0.41604002408E+01 -0.38836064189E+02 -0.28995590454E+03  0.29257473471E+03  0.00000000000E+00 0. -1.
         22    1    1    2    0    0  0.80425078159E+01 -0.53739004871E+02  0.49183410350E+02  0.73290998289E+02  0.00000000000E+00 0. -1.
         22    1    1    2    0    0  0.29411875642E+01  0.53126596396E+02 -0.17321045599E+02  0.55956272656E+02  0.00000000000E+00 0. -1.
</event>
<event>
 6    1  0.4069520E-005  0.7523324E+02  0.7818608E-02  0.1358818E+00
          2   -1    0    0  502    0  0.00000000000E+00  0.00000000000E+00  0.66294694827E+02  0.66294694827E+02  0.00000000000E+00 0. -1.
          1   -1    0    0  501    0 -0.00000000000E+00 -0.00000000000E+00 -0.14030099423E+04  0.14030099423E+04  0.00000000000E+00 0.  1.
          2    1    1    2  501    0  0.50046174756E+02 -0.20858374809E+02 -0.86751250402E+03  0.86920517488E+03  0.00000000000E+00 0. -1.
          1    1    1    2  502    0 -0.72460165790E+02 -0.19148522301E+02 -0.46204269796E+03  0.46808182647E+03  0.00000000000E+00 0.  1.
         22    1    1    2    0    0  0.24172375141E+02  0.52290476118E+02  0.48306163416E+02  0.75180336768E+02  0.00000000000E+00 0. -1.
         22    1    1    2    0    0 -0.17583841074E+01 -0.12283579009E+02 -0.55466208946E+02  0.56837299045E+02  0.00000000000E+00 0.  1.
</event>
<event>
 6    1  0.4069520E-005  0.9966054E+02  0.7818608E-02  0.1346964E+00
          2   -1    0    0  502    0  0.00000000000E+00  0.00000000000E+00  0.25203948563E+02  0.25203948563E+02  0.00000000000E+00 0.  1.
          1   -1    0    0  501    0 -0.00000000000E+00 -0.00000000000E+00 -0.23137106013E+04  0.23137106013E+04  0.00000000000E+00 0.  1.
          2    1    1    2  501    0  0.44542213518E+02 -0.53300339971E+02 -0.77464664573E+03  0.77775469190E+03  0.00000000000E+00 0.  1.
          1    1    1    2  502    0 -0.79668901871E+02  0.22165777236E+02 -0.13468808392E+04  0.13494170780E+04  0.00000000000E+00 0.  1.
         22    1    1    2    0    0  0.34046518458E+01  0.30118731958E+02  0.10017503826E+02  0.31923033250E+02  0.00000000000E+00 0.  1.
         22    1    1    2    0    0  0.31722036508E+02  0.10158307766E+01 -0.17699667168E+03  0.17981974668E+03  0.00000000000E+00 0. -1.
</event>
<event>
 6    1  0.4069520E-005  0.1119077E+03  0.7818608E-02  0.1260727E+00
          2   -1    0    0  502    0  0.00000000000E+00  0.00000000000E+00  0.20998732282E+03  0.20998732282E+03  0.00000000000E+00 0. -1.
          1   -1    0    0  501    0 -0.00000000000E+00 -0.00000000000E+00 -0.21285991969E+03  0.21285991969E+03  0.00000000000E+00 0. -1.
          2    1    1    2  501    0 -0.91509539777E+02 -0.59018797319E+02  0.45707831260E+02  0.11809496241E+03  0.00000000000E+00 0. -1.
          1    1    1    2  502    0  0.40364319725E+02  0.41062391984E+02 -0.13522547468E+03  0.14697390021E+03  0.00000000000E+00 0. -1.
         22    1    1    2    0    0 -0.37604626157E+02  0.19633835136E+01  0.88539281710E+01  0.38682745860E+02  0.00000000000E+00 0. -1.
         22    1    1    2    0    0  0.88749846209E+02  0.15993021821E+02  0.77791118370E+02  0.11909563404E+03  0.00000000000E+00 0.  1.
</event>
<event>
 6    1  0.4069520E-005  0.1891934E+03  0.7818608E-02  0.1188740E+00
          2   -1    0    0  502    0  0.00000000000E+00  0.00000000000E+00  0.90101598993E+02  0.90101598993E+02  0.00000000000E+00 0.  1.
          1   -1    0    0  501    0 -0.00000000000E+00 -0.00000000000E+00 -0.40077374291E+03  0.40077374291E+03  0.00000000000E+00 0.  1.
          2    1    1    2  501    0  0.55118023512E+02  0.88389241727E+02 -0.18619004498E+03  0.21334804292E+03  0.00000000000E+00 0.  1.
          1    1    1    2  502    0  0.23536103894E+01 -0.20379193845E+02 -0.12328809861E+03  0.12498322401E+03  0.00000000000E+00 0.  1.
         22    1    1    2    0    0 -0.92987178805E+02 -0.24389363270E+02  0.25801090093E+01  0.96167111973E+02  0.00000000000E+00 0.  1.
         22    1    1    2    0    0  0.35515544903E+02 -0.43620684612E+02 -0.37741093332E+01  0.56376963000E+02  0.00000000000E+00 0.  1.
</event>
<event>
 6    1  0.4069520E-005  0.9116700E+02  0.7818608E-02  0.1308859E+00
          2   -1    0    0  502    0  0.00000000000E+00  0.00000000000E+00  0.51314983574E+03  0.51314983574E+03  0.00000000000E+00 0. -1.
          1   -1    0    0  501    0 -0.00000000000E+00 -0.00000000000E+00 -0.64322932984E+02  0.64322932984E+02  0.00000000000E+00 0. -1.
          2    1    1    2  501    0  0.53158116597E+02  0.13514394579E+02  0.15912137809E+03  0.16830934967E+03  0.00000000000E+00 0. -1.
          1    1    1    2  502    0 -0.48225280655E+02 -0.24708036937E+02 -0.33316583436E+02  0.63609429454E+02  0.00000000000E+00 0. -1.
         22    1    1    2    0    0 -0.47610309494E+02  0.42012241844E+02  0.11935693267E+03  0.13519558947E+03  0.00000000000E+00 0. -1.
         22    1    1    2    0    0  0.42677473552E+02 -0.30818599487E+02  0.20366517544E+03  0.21035840014E+03  0.00000000000E+00 0. -1.
</event>
<event>
 6    1  0.4069520E-005  0.2306605E+03  0.7818608E-02  0.1211477E+00
          2   -1    0    0  502    0  0.00000000000E+00  0.00000000000E+00  0.49430926065E+03  0.49430926065E+03  0.00000000000E+00 0. -1.
          1   -1    0    0  501    0 -0.00000000000E+00 -0.00000000000E+00 -0.49762737711E+03  0.49762737711E+03  0.00000000000E+00 0.  1.
          2    1    1    2  501    0 -0.52702843408E+01  0.75260129925E+02  0.38414260008E+02  0.84661197873E+02  0.00000000000E+00 0. -1.
          1    1    1    2  502    0  0.32874400899E+02  0.13076593056E+02 -0.45977330163E+03  0.46113253237E+03  0.00000000000E+00 0.  1.
         22    1    1    2    0    0  0.22663346642E+02  0.23379463571E+02  0.70871311217E+02  0.77993392999E+02  0.00000000000E+00 0.  1.
         22    1    1    2    0    0 -0.50267463200E+02 -0.11171618655E+03  0.34716961394E+03  0.36814951452E+03  0.00000000000E+00 0. -1.
</event>
<event>
 6    1  0.4069520E-005  0.1751832E+03  0.7818608E-02  0.1276843E+00
          2   -1    0    0  502    0  0.00000000000E+00  0.00000000000E+00  0.14229469227E+03  0.14229469227E+03  0.00000000000E+00 0.  1.
          1   -1    0    0  501    0 -0.00000000000E+00 -0.00000000000E+00 -0.75380254305E+03  0.75380254305E+03  0.00000000000E+00 0.  1.
          2    1    1    2  501    0 -0.80823874870E+02  0.33606384896E+01  0.34525539450E+00  0.80894448767E+02  0.00000000000E+00 0.  1.
          1    1    1    2  502    0  0.17174861737E+03 -0.99630403265E+01 -0.63802659982E+03  0.66081373458E+03  0.00000000000E+00 0.  1.
         22    1    1    2    0    0 -0.66376842123E+01 -0.18725033657E+02  0.57605056411E+02  0.60934622845E+02  0.00000000000E+00 0.  1.
         22    1    1    2    0    0 -0.84287058292E+02  0.25327435493E+02 -0.31431562778E+02  0.93454429124E+02  0.00000000000E+00 0. -1.
</event>
<event>
 6    1  0.4069520E-005  0.8203643E+02  0.7818608E-02  0.1339129E+00
          2   -1    0    0  502    0  0.00000000000E+00  0.00000000000E+00  0.42415756069E+03  0.42415756069E+03  0.00000000000E+00 0. -1.
          1   -1    0    0  501    0 -0.00000000000E+00 -0.00000000000E+00 -0.79782597915E+02  0.79782597915E+02  0.00000000000E+00 0. -1.
          2    1    1    2  501    0  0.63866695888E+01 -0.32955829846E+02 -0.26170398514E+01  0.33670835553E+02  0.00000000000E+00 0. -1.
          1    1    1    2  502    0  0.18598962249E+02  0.10723140684E+03  0.19922557012E+02  0.11064087982E+03  0.00000000000E+00 0. -1.
         22    1    1    2    0    0 -0.43731499044E+02 -0.44238043353E+02  0.31667568441E+03  0.32272734249E+03  0.00000000000E+00 0. -1.
         22    1    1    2    0    0  0.18745867206E+02 -0.30037533639E+02  0.10393761198E+02  0.36901100746E+02  0.00000000000E+00 0. -1.
</event>
<event>
 6    1  0.4069520E-005  0.4219654E+02  0.7818608E-02  0.1556192E+00
          2   -1    0    0  502    0  0.00000000000E+00  0.00000000000E+00  0.74565596221E+02  0.74565596221E+02  0.00000000000E+00 0.  1.
          1   -1    0    0  501    0 -0.00000000000E+00 -0.00000000000E+00 -0.52322198650E+03  0.52322198650E+03  0.00000000000E+00 0.  1.
          2    1    1    2  501    0  0.27959104802E+02  0.50311080945E-01 -0.77521628999E+02  0.82409447488E+02  0.00000000000E+00 0.  1.
          1    1    1    2  502    0 -0.39703058422E+02  0.98268146668E+01 -0.38791709166E+03  0.39006739050E+03  0.00000000000E+00 0.  1.
         22    1    1    2    0    0 -0.26385197327E+01 -0.17929700230E+02  0.68590141670E+02  0.70943945978E+02  0.00000000000E+00 0.  1.
         22    1    1    2    0    0  0.14382473352E+02  0.80525744825E+01 -0.51807811289E+02  0.54366798747E+02  0.00000000000E+00 0. -1.
</event>
<event>
 6    1  0.4069520E-005  0.2386832E+03  0.7818608E-02  0.1198066E+00
          2   -1    0    0  502    0  0.00000000000E+00  0.00000000000E+00  0.39680842396E+02  0.39680842396E+02  0.00000000000E+00 0.  1.
          1   -1    0    0  501    0 -0.00000000000E+00 -0.00000000000E+00 -0.17822269963E+04  0.17822269963E+04  0.00000000000E+00 0. -1.
          2    1    1    2  501    0 -0.92345733857E+02  0.48536179760E+02 -0.59987522327E+03  0.60887911674E+03  0.00000000000E+00 0.  1.
          1    1    1    2  502    0  0.39247560292E+02 -0.22990901736E+01 -0.10286268664E+04  0.10293779126E+04  0.00000000000E+00 0. -1.
         22    1    1    2    0    0 -0.31255098068E+02 -0.24955730135E+02  0.27175107620E+00  0.39996793252E+02  0.00000000000E+00 0. -1.
         22    1    1    2    0    0  0.84353271633E+02 -0.21281359452E+02 -0.11431581534E+03  0.14365401606E+03  0.00000000000E+00 0.  1.
</event>
<event>
 6    1  0.4069520E-005  0.9362930E+02  0.7818608E-02  0.1325407E+00
          2   -1    0    0  502    0  0.00000000000E+00  0.00000000000E+00  0.27847933915E+03  0.27847933915E+03  0.00000000000E+00 0.  1.
          1   -1    0    0  501    0 -0.00000000000E+00 -0.00000000000E+00 -0.22301122719E+03  0.22301122719E+03  0.00000000000E+00 0. -1.
          2    1    1    2  501    0 -0.72180625986E+02 -0.44850726001E+02  0.10179358427E+03  0.13260303235E+03  0.00000000000E+00 0.  1.
          1    1    1    2  502    0  0.69815841374E+02  0.17451473237E+02 -0.17366192632E+03  0.18798210095E+03  0.00000000000E+00 0. -1.
         22    1    1    2    0    0 -0.45591781290E+02  0.43183236605E+01  0.11838758991E+03  0.12693651911E+03  0.00000000000E+00 0.  1.
         22    1    1    2    0    0  0.47956565902E+02  0.23080929103E+02  0.89488641059E+01  0.53968913924E+02  0.00000000000E+00 0.  1.
</event>
<event>
 6    1  0.4069520E-005  0.2413333E+03  0.7818608E-02  0.1149672E+00
          2   -1    0    0  502    0  0.00000000000E+00  0.00000000000E+00  0.91389009020E+03  0.91389009020E+03  0.00000000000E+00 0. -1.
          1   -1    0    0  501    0 -0.00000000000E+00 -0.00000000000E+00 -0.14866023734E+04  0.14866023734E+04  0.00000000000E+00 0.  1.
          2    1    1    2  501    0 -0.13936938110E+03  0.76903482457E+02  0.22967767478E+03  0.27944553010E+03  0.00000000000E+00 0. -1.
          1    1    1    2  502    0  0.10839836063E+03 -0.16847281652E+03 -0.14451405520E+04  0.14589600781E+04  0.00000000000E+00 0.  1.
         22    1    1    2    0    0  0.10142457500E+02  0.11356292485E+03  0.59283518407E+03  0.60369939772E+03  0.00000000000E+00 0. -1.
         22    1    1    2    0    0  0.20828562968E+02 -0.21993590781E+02  0.49915409911E+02  0.58387457706E+02  0.00000000000E+00 0.  1.
</event>
<event>
 6    1  0.4069520E-005  0.4591874E+02  0.7818608E-02  0.1533498E+00
          2   -1    0    0  502    0  0.00000000000E+00  0.00000000000E+00  0.89091871250E+02  0.89091871250E+02  0.00000000000E+00 0. -1.
          1   -1    0    0  501    0 -0.00000000000E+00 -0.00000000000E+00 -0.12619306886E+04  0.12619306886E+04  0.00000000000E+00 0.  1.
          2    1    1    2  501    0 -0.11958827529E+02 -0.30428951720E+02 -0.23629680122E+03  0.23854792585E+03  0.00000000000E+00 0. -1.
          1    1    1    2  502    0  0.13733271622E+02  0.26460124351E+02 -0.98060392706E+03  0.98105698239E+03  0.00000000000E+00 0.  1.
         22    1    1    2    0    0 -0.16249836176E+02 -0.81229662544E+01 -0.40706391166E+02  0.44576339445E+02  0.00000000000E+00 0. -1.
         22    1    1    2    0    0  0.14475392082E+02  0.12091793623E+02  0.84768302126E+02  0.86841312140E+02  0.00000000000E+00 0. -1.
</event>
<event>
 6    1  0.5013656E-005  0.1612095E+03  0.7818608E-02  0.1248557E+00
          2   -1    0    0  502    0  0.00000000000E+00  0.00000000000E+00  0.78057602097E+03  0.78057602097E+03  0.00000000000E+00 0.  1.
          1   -1    0    0  501    0 -0.00000000000E+00 -0.00000000000E+00 -0.13607158285E+04  0.13607158285E+04  0.00000000000E+00 0. -1.
          2    1    1    2  501    0 -0.37989042706E+01  0.56215518213E+02  0.21024173582E+03  0.21766075357E+03  0.00000000000E+00 0.  1.
          1    1    1    2  502    0  0.64968274990E+02 -0.12195953409E+03 -0.13425735164E+04  0.13496661260E+04  0.00000000000E+00 0. -1.
         22    1    1    2    0    0  0.19929535907E+02  0.39615279494E+02  0.60875801047E+02  0.75315469354E+02  0.00000000000E+00 0. -1.
         22    1    1    2    0    0 -0.81098906627E+02  0.26128736389E+02  0.49131617200E+03  0.49864950054E+03  0.00000000000E+00 0. -1.
</event>
<event>
 6    1  0.4069520E-005  0.1117612E+03  0.7818608E-02  0.1360848E+00
          2   -1    0    0  502    0  0.00000000000E+00  0.00000000000E+00  0.14515990408E+03  0.14515990408E+03  0.00000000000E+00 0. -1.
          1   -1    0    0  501    0 -0.00000000000E+00 -0.00000000000E+00 -0.76356775453E+02  0.76356775453E+02  0.00000000000E+00 0.  1.
          2    1    1    2  501    0 -0.15733777907E+01  0.46408183995E+02  0.24912719031E+02  0.52695717368E+02  0.00000000000E+00 0. -1.
          1    1    1    2  502    0  0.27412259240E+02 -0.13742403950E+02  0.13225545191E+02  0.33394620354E+02  0.00000000000E+00 0.  1.
         22    1    1    2    0    0 -0.16213271431E+02  0.50547634395E+01  0.74725758425E+02  0.76631323727E+02  0.00000000000E+00 0. -1.
         22    1    1    2    0    0 -0.96256100176E+01 -0.37720543484E+02 -0.44060894024E+02  0.58795018081E+02  0.00000000000E+00 0.  1.
</event>
<event>
 6    1  0.4069520E-005  0.1049352E+03  0.7818608E-02  0.1339532E+00
          2   -1    0    0  502    0  0.00000000000E+00  0.00000000000E+00  0.35694055748E+02  0.35694055748E+02  0.00000000000E+00 0.  1.
          1   -1    0    0  501    0 -0.00000000000E+00 -0.00000000000E+00 -0.14597670115E+04  0.14597670115E+04  0.00000000000E+00 0.  1.
          2    1    1    2  501    0 -0.57822229712E+02  0.11986801384E+01 -0.12095142179E+04  0.12108961518E+04  0.00000000000E+00 0.  1.
          1    1    1    2  502    0  0.61535009985E+02 -0.11735428460E+01 -0.98155637775E+02  0.11585535760E+03  0.00000000000E+00 0.  1.
         22    1    1    2    0    0  0.21614594100E+02 -0.15179990730E+02 -0.13248861753E+03  0.13509573114E+03  0.00000000000E+00 0.  1.
         22    1    1    2    0    0 -0.25327374373E+02  0.15154853438E+02  0.16085517463E+02  0.33613826729E+02  0.00000000000E+00 0.  1.
</event>
<event>
 6    1  0.4069520E-005  0.1235174E+03  0.7818608E-02  0.1310759E+00
          2   -1    0    0  502    0  0.00000000000E+00  0.00000000000E+00  0.49631614596E+02  0.49631614596E+02  0.00000000000E+00 0.  1.
          1   -1    0    0  501    0 -0.00000000000E+00 -0.00000000000E+00 -0.65206090270E+03  0.65206090270E+03  0.00000000000E+00 0.  1.
          2    1    1    2  501    0 -0.26497714469E+02 -0.11707421271E+02 -0.20087595838E+03  0.20295404218E+03  0.00000000000E+00 0.  1.
          1    1    1    2  502    0  0.79750520973E+02 -0.13454704860E+02 -0.33740740972E+03  0.34696532220E+03  0.00000000000E+00 0.  1.
         22    1    1    2    0    0 -0.10009328229E+02 -0.28430032028E+02  0.24977516085E+02  0.39144982852E+02  0.00000000000E+00 0.  1.
         22    1    1    2    0    0 -0.43243478275E+02  0.53592158160E+02 -0.89123436096E+02  0.11262817006E+03  0.00000000000E+00 0.  1.
</event>
<event>
 6    1  0.4069520E-005  0.4948655E+02  0.7818608E-02  0.1476859E+00
          2   -1    0    0  502    0  0.00000000000E+00  0.00000000000E+00  0.11411703205E+03  0.11411703205E+03  0.00000000000E+00 0.  1.
          1   -1    0    0  501    0 -0.00000000000E+00 -0.00000000000E+00 -0.16477478044E+03  0.16477478044E+03  0.00000000000E+00 0.  1.
          2    1    1    2  501    0 -0.36969040358E+02  0.22153921330E+02 -0.42523305676E+02  0.60545335914E+02  0.00000000000E+00 0.  1.
          1    1    1    2  502    0  0.40638400858E+02  0.21843967301E+01 -0.67350251888E+02  0.78691217062E+02  0.00000000000E+00 0.  1.
         22    1    1    2    0    0 -0.20950444901E+02  0.33601996580E+01 -0.34451584891E+02  0.40461386343E+02  0.00000000000E+00 0. -1.
         22    1    1    2    0    0  0.17281084401E+02 -0.27698517718E+02  0.93667394074E+02  0.99193873170E+02  0.00000000000E+00 0.  1.
</event>
<event>
 6    1  0.4069520E-005  0.4336056E+03  0.7818608E-02  0.1165194E+00
          2   -1    0    0  502    0  0.00000000000E+00  0.00000000000E+00  0.69216489830E+03  0.69216489830E+03  0.00000000000E+00 0. -1.
          1   -1    0    0  501    0 -0.00000000000E+00 -0.00000000000E+00 -0.15729297172E+03  0.15729297172E+03  0.00000000000E+00 0. -1.
          2    1    1    2  501    0 -0.65900404859E+02  0.17580901070E+03  0.18615590783E+03  0.26439684874E+03  0.00000000000E+00 0. -1.
          1    1    1    2  502    0 -0.94204889995E+01  0.41317102917E+02 -0.74966091248E+02  0.86114827082E+02  0.00000000000E+00 0. -1.
         22    1    1    2    0    0 -0.99796962748E+01  0.93472669559E+01  0.63892794229E+02  0.65339535441E+02  0.00000000000E+00 0. -1.
         22    1    1    2    0    0  0.85300590134E+02 -0.22647338057E+03  0.35978931577E+03  0.43360665877E+03  0.00000000000E+00 0.  1.
</event>
<event>
 6    1  0.4069520E-005  0.8852519E+02  0.7818608E-02  0.1311332E+00
          2   -1    0    0  502    0  0.00000000000E+00  0.00000000000E+00  0.19518568047E+03  0.19518568047E+03  0.00000000000E+00 0. -1.
          1   -1    0    0  501    0 -0.00000000000E+00 -0.00000000000E+00 -0.50894286409E+03  0.50894286409E+03  0.00000000000E+00 0.  1.
          2    1    1    2  501    0  0.20999078032E+02  0.37716135826E+01 -0.18076288105E+02  0.27963163964E+02  0.00000000000E+00 0. -1.
          1    1    1    2  502    0  0.21647381843E+02 -0.42376478580E+02 -0.45816576009E+03  0.46063026257E+03  0.00000000000E+00 0.  1.
         22    1    1    2    0    0 -0.82886242667E+02  0.34999772102E+02  0.14683676619E+03  0.17220960825E+03  0.00000000000E+00 0. -1.
         22    1    1    2    0    0  0.40239782792E+02  0.36050928957E+01  0.15648098390E+02  0.43325509774E+02  0.00000000000E+00 0. -1.
</event>
<event>
 6    1  0.4069520E-005  0.1073362E+03  0.7818608E-02  0.1384558E+00
          2   -1    0    0  502    0  0.00000000000E+00  0.00000000000E+00  0.39789367103E+02  0.39789367103E+02  0.00000000000E+00 0.  1.
          1   -1    0    0  501    0 -0.00000000000E+00 -0.00000000000E+00 -0.12786037073E+04  0.12786037073E+04  0.00000000000E+00 0.  1.
          2    1    1    2  501    0  0.38998647873E+02  0.45819792827E+02 -0.21793685104E+03  0.22609028947E+03  0.00000000000E+00 0.  1.
          1    1    1    2  502    0 -0.83399750224E+02 -0.58398993342E+02 -0.91629394649E+03  0.92193305458E+03  0.00000000000E+00 0.  1.
         22    1    1    2    0    0  0.37392556457E+01  0.12416394823E+02  0.28447231587E+02  0.31263299221E+02  0.00000000000E+00 0.  1.
         22    1    1    2    0    0  0.40661846705E+02  0.16280569204E+00 -0.13303077429E+03  0.13910643116E+03  0.00000000000E+00 0.  1.
</event>
<event>
 6    1  0.4069520E-005  0.1028987E+03  0.7818608E-02  0.1276692E+00
          2   -1    0    0  502    0  0.00000000000E+00  0.00000000000E+00  0.12400656206E+03  0.12400656206E+03  0.00000000000E+00 0. -1.
          1   -1    0    0  501    0 -0.00000000000E+00 -0.00000000000E+00 -0.22998300190E+03  0.22998300190E+03  0.00000000000E+00 0. -1.
          2    1    1    2  501    0  0.58063400523E+02  0.45351308462E+01 -0.96532409362E+02  0.11274055149E+03  0.00000000000E+00 0. -1.
          1    1    1    2  502    0 -0.95011941429E+02 -0.35728097233E+02  0.24654003873E+02  0.10445853653E+03  0.00000000000E+00 0. -1.
         22    1    1    2    0    0  0.62943649675E+02  0.60456392507E+02 -0.42006196369E+02  0.96857622120E+02  0.00000000000E+00 0. -1.
         22    1    1    2    0    0 -0.25995108769E+02 -0.29263426120E+02  0.79081620267E+01  0.39932853828E+02  0.00000000000E+00 0. -1.
</event>
<event>
 6    1  0.4069520E-005  0.9968508E+02  0.7818608E-02  0.1307203E+00
          2   -1    0    0  502    0  0.00000000000E+00  0.00000000000E+00  0.65032465032E+03  0.65032465032E+03  0.00000000000E+00 0.  1.
          1   -1    0    0  501    0 -0.00000000000E+00 -0.00000000000E+00 -0.87500046793E+03  0.87500046793E+03  0.00000000000E+00 0. -1.
          2    1    1    2  501    0 -0.51890560875E+02 -0.93397969736E+01  0.11668586486E+03  0.12804473114E+03  0.00000000000E+00 0.  1.
          1    1    1    2  502    0  0.86130772574E+02  0.44881952796E+01 -0.85875786201E+03  0.86307804946E+03  0.00000000000E+00 0. -1.
         22    1    1    2    0    0  0.79626358726E+01  0.60646205704E+02  0.28573066862E+03  0.29220434772E+03  0.00000000000E+00 0. -1.
         22    1    1    2    0    0 -0.42202847572E+02 -0.55794604010E+02  0.23166551093E+03  0.24199798993E+03  0.00000000000E+00 0.  1.
</event>
<event>
 6    1  0.4069520E-005  0.1760794E+03  0.7818608E-02  0.1205263E+00
          2   -1    0    0  502    0  0.00000000000E+00  0.00000000000E+00  0.14489416735E+03  0.14489416735E+03  0.00000000000E+00 0. -1.
          1   -1    0    0  501    0 -0.00000000000E+00 -0.00000000000E+00 -0.60457409633E+03  0.60457409633E+03  0.00000000000E+00 0. -1.
          2    1    1    2  501    0 -0.80374796064E+02  0.85585821265E+02 -0.54595411078E+02  0.12948242952E+03  0.00000000000E+00 0. -1.
          1    1    1    2  502    0  0.14539457030E+03 -0.89547126540E+02 -0.44294073373E+03  0.47471545429E+03  0.00000000000E+00 0. -1.
         22    1    1    2    0    0 -0.72024985158E+02 -0.42471284568E+02  0.49126946917E+02  0.96978685356E+02  0.00000000000E+00 0.  1.
         22    1    1    2    0    0  0.70052109187E+01  0.46432589843E+02 -0.11270731091E+02  0.48291694512E+02  0.00000000000E+00 0. -1.
</event>
<event>
 6    1  0.4069520E-005  0.1844979E+03  0.7818608E-02  0.1273612E+00
          2   -1    0    0  502    0  0.00000000000E+00  0.00000000000E+00  0.16711953001E+03  0.16711953001E+03  0.00000000000E+00 0. -1.
          1   -1    0    0  501    0 -0.00000000000E+00 -0.00000000000E+00 -0.39691920629E+03  0.39691920629E+03  0.00000000000E+00 0. -1.
          2    1    1    2  501    0  0.80698258724E+02 -0.12570428486E+03 -0.67738560519E+02  0.16401917197E+03  0.00000000000E+00 0. -1.
          1    1    1    2  502    0 -0.12191364064E+03  0.10989878261E+03 -0.20261527717E+03  0.26075587958E+03  0.00000000000E+00 0. -1.
         22    1    1    2    0    0  0.74820447236E+01  0.16474984587E+02  0.83052360648E+02  0.85000592466E+02  0.00000000000E+00 0. -1.
         22    1    1    2    0    0  0.33733337193E+02 -0.66948233438E+00 -0.42498199243E+02  0.54263092279E+02  0.00000000000E+00 0.  1.
</event>
<event>
 6    1  0.4069520E-005  0.9590992E+02  0.7818608E-02  0.1347955E+00
          2   -1    0    0  502    0  0.00000000000E+00  0.00000000000E+00  0.28993729430E+03  0.28993729430E+03  0.00000000000E+00 0.  1.
          1   -1    0    0  501    0 -0.00000000000E+00 -0.00000000000E+00 -0.80780669034E+02  0.80780669034E+02  0.00000000000E+00 0.  1.
          2    1    1    2  501    0  0.16615634891E+02 -0.40342422175E+02  0.18062330318E+02  0.47221161848E+02  0.00000000000E+00 0.  1.
          1    1    1    2  502    0 -0.43278460728E+02  0.69570617919E+02 -0.11880194271E+02  0.82790307745E+02  0.00000000000E+00 0.  1.
         22    1    1    2    0    0  0.59162852299E+02 -0.21377054628E+02  0.40474412726E+02  0.74802403987E+02  0.00000000000E+00 0.  1.
         22    1    1    2    0    0 -0.32500026462E+02 -0.78511411158E+01  0.16250007649E+03  0.16590408975E+03  0.00000000000E+00 0.  1.
</event>
<event>
 6    1  0.4069520E-005  0.5132722E+02  0.7818608E-02  0.1441447E+00
          2   -1    0    0  502    0  0.00000000000E+00  0.00000000000E+00  0.22474608060E+03  0.22474608060E+03  0.00000000000E+00 0.  1.
          1   -1    0    0  501    0 -0.00000000000E+00 -0.00000000000E+00 -0.90259892613E+03  0.90259892613E+03  0.00000000000E+00 0.  1.
          2    1    1    2  501    0 -0.25686443994E+02 -0.18305276913E+01  0.67096817307E+02  0.71868818895E+02  0.00000000000E+00 0.  1.
          1    1    1    2  502    0 -0.26821327441E+02  0.40184077254E+02 -0.86938185060E+03  0.87072323147E+03  0.00000000000E+00 0.  1.
         22    1    1    2    0    0 -0.19986459398E+02 -0.86229406550E+01  0.10049336342E+03  0.10282378011E+03  0.00000000000E+00 0. -1.
         22    1    1    2    0    0  0.72494230833E+02 -0.29730608908E+02  0.23938824341E+02  0.81929176249E+02  0.00000000000E+00 0.  1.
</event>
<event>
 6    1  0.4069520E-005  0.5451873E+02  0.7818608E-02  0.1466359E+00
          2   -1    0    0  502    0  0.00000000000E+00  0.00000000000E+00  0.35186144445E+02  0.35186144445E+02  0.00000000000E+00 0. -1.
          1   -1    0    0  501    0 -0.00000000000E+00 -0.00000000000E+00 -0.13726873007E+04  0.13726873007E+04  0.00000000000E+00 0.  1.
          2    1    1    2  501    0 -0.11563176315E+02 -0.17489409015E+02 -0.27841415968E+03  0.27920249065E+03  0.00000000000E+00 0. -1.
          1    1    1    2  502    0  0.21180293184E+02  0.19601649863E+02 -0.97416905572E+03  0.97459641833E+03  0.00000000000E+00 0.  1.
         22    1    1    2    0    0 -0.15150409081E+02 -0.23985524778E+02  0.27442831723E+02  0.39470866562E+02  0.00000000000E+00 0. -1.
         22    1    1    2    0    0  0.55332922126E+01  0.21873283931E+02 -0.11236077255E+03  0.11460366958E+03  0.00000000000E+00 0. -1.
</event>
<event>
 6    1  0.4069520E-005  0.2892815E+03  0.7818608E-02  0.1154323E+00
          2   -1    0    0  502    0  0.00000000000E+00  0.00000000000E+00  0.36559227330E+03  0.36559227330E+03  0.00000000000E+00 0.  1.
          1   -1    0    0  501    0 -0.00000000000E+00 -0.00000000000E+00 -0.38638509828E+03  0.38638509828E+03  0.00000000000E+00 0.  1.
          2    1    1    2  501    0  0.46385756108E+02 -0.63624115651E+02 -0.46360679005E+02  0.91372747687E+02  0.00000000000E+00 0.  1.
          1    1    1    2  502    0  0.17635644984E+02  0.72761329296E+02 -0.29899423828E+03  0.30822521237E+03  0.00000000000E+00 0.  1.
         22    1    1    2    0    0 -0.46455900737E+02  0.47515617606E+02  0.24040791117E+03  0.24942303098E+03  0.00000000000E+00 0.  1.
         22    1    1    2    0    0 -0.17565500355E+02 -0.56652831251E+02  0.84154181133E+02  0.10295638054E+03  0.00000000000E+00 0. -1.
</event>
<event>
 6    1  0.4069520E-005  0.1014091E+03  0.7818608E-02  0.1284314E+00
          2   -1    0    0  502    0  0.00000000000E+00  0.00000000000E+00  0.64892014993E+03  0.64892014993E+03  0.00000000000E+00 0. -1.
          1   -1    0    0  501    0 -0.00000000000E+00 -0.00000000000E+00 -0.24100721559E+02  0.24100721559E+02  0.00000000000E+00 0. -1.
          2    1    1    2  501    0  0.98767974547E+01  0.31297480354E+02  0.21258416717E+02  0.39102476722E+02  0.00000000000E+00 0. -1.
          1    1    1    2  502    0  0.47223238520E+02 -0.34410519025E+02  0.17223191410E+03  0.18187344586E+03  0.00000000000E+00 0. -1.
         22    1    1    2    0    0 -0.92958420332E+02 -0.96543572527E+01  0.25327931112E+03  0.26997200589E+03  0.00000000000E+00 0. -1.
         22    1    1    2    0    0  0.35858384357E+02  0.12767395923E+02  0.17804978643E+03  0.18207294301E+03  0.00000000000E+00 0. -1.
</event>
<event>
 6    1  0.4069520E-005  0.1288278E+03  0.7818608E-02  0.1230418E+00
          2   -1    0    0  502    0  0.00000000000E+00  0.00000000000E+00  0.60726028208E+02  0.60726028208E+02  0.00000000000E+00 0. -1.
          1   -1    0    0  501    0 -0.00000000000E+00 -0.00000000000E+00 -0.14479757873E+04  0.14479757873E+04  0.00000000000E+00 0. -1.
          2    1    1    2  501    0  0.98987446921E+02 -0.36191293883E+01 -0.70772535393E+03  0.71462352980E+03  0.00000000000E+00 0. -1.
          1    1    1    2  502    0  0.13865363869E+02 -0.16029041444E+02 -0.61522698956E+03  0.61559193234E+03  0.00000000000E+00 0. -1.
         22    1    1    2    0    0  0.13161109394E+02  0.39140746756E+01 -0.48629811259E+02  0.50531112437E+02  0.00000000000E+00 0.  1.
         22    1    1    2    0    0 -0.12601392018E+03  0.15734096157E+02 -0.15667604373E+02  0.12795524096E+03  0.00000000000E+00 0. -1.
</event>
<event>
 6    1  0.4069520E-005  0.3579444E+03  0.7818608E-02  0.1168187E+00
          2   -1    0    0  502    0  0.00000000000E+00  0.00000000000E+00  0.56963369515E+03  0.56963369515E+03  0.00000000000E+00 0.  1.
          1   -1    0    0  501    0 -0.00000000000E+00 -0.00000000000E+00 -0.18418584321E+03  0.18418584321E+03  0.00000000000E+00 0.  1.
          2    1    1    2  501    0 -0.11240245831E+03  0.36326808823E+02  0.49523721871E+02  0.12808805058E+03  0.00000000000E+00 0.  1.
          1    1    1    2  502    0 -0.72448698130E+02 -0.15956831683E+03 -0.31867177359E+02  0.17811900120E+03  0.00000000000E+00 0.  1.
         22    1    1    2    0    0  0.82312560986E+01 -0.21143008428E+02  0.62589238154E+02  0.66574718287E+02  0.00000000000E+00 0.  1.
         22    1    1    2    0    0  0.17661990034E+03  0.14438451643E+03  0.30520206927E+03  0.38103776830E+03  0.00000000000E+00 0.  1.
</event>
<event>
 6    1  0.4069520E-005  0.1046679E+03  0.7818608E-02  0.1286655E+00
          2   -1    0    0  502    0  0.00000000000E+00  0.00000000000E+00  0.44398489911E+03  0.44398489911E+03  0.00000000000E+00 0. -1.
          1   -1    0    0  501    0 -0.00000000000E+00 -0.00000000000E+00 -0.10324152224E+03  0.10324152224E+03  0.00000000000E+00 0. -1.
          2    1    1    2  501    0  0.44032886163E+02  0.47016589092E+02  0.11840075393E+03  0.13478944041E+03  0.00000000000E+00 0. -1.
          1    1    1    2  502    0 -0.67967367456E+02  0.41777417645E+01 -0.66135412164E+02  0.94925809490E+02  0.00000000000E+00 0. -1.
         22    1    1    2    0    0 -0.23997677119E+02  0.27306242945E+02  0.12216359544E+03  0.12745769283E+03  0.00000000000E+00 0. -1.
         22    1    1    2    0    0  0.47932158412E+02 -0.78500573801E+02  0.16631443966E+03  0.19005347863E+03  0.00000000000E+00 0. -1.
</event>
<event>
 6    1  0.4069520E-005  0.1059035E+03  0.7818608E-02  0.1312064E+00
          2   -1    0    0  502    0  0.00000000000E+00  0.00000000000E+00  0.46435781617E+02  0.46435781617E+02  0.00000000000E+00 0.  1.
          1   -1    0    0  501    0 -0.00000000000E+00 -0.00000000000E+00 -0.37963871332E+03  0.37963871332E+03  0.00000000000E+00 0.  1.
          2    1    1    2  501    0  0.14052806513E+02 -0.44400781041E+02 -0.85307132870E+02  0.97191654201E+02  0.00000000000E+00 0.  1.
          1    1    1    2  502    0 -0.31549615400E+02  0.76771706836E+02 -0.64913966344E+02  0.10537123056E+03  0.00000000000E+00 0.  1.
         22    1    1    2    0    0  0.63513700977E+02 -0.24396997195E+02 -0.15447818523E+03  0.16879784772E+03  0.00000000000E+00 0.  1.
         22    1    1    2    0    0 -0.46016892090E+02 -0.79739286007E+01 -0.28503647257E+02  0.54713762454E+02  0.00000000000E+00 0. -1.
</event>
<event>
 6    1  0.4069520E-005  0.1614187E+03  0.7818608E-02  0.1238910E+00
          2   -1    0    0  502    0  0.00000000000E+00  0.00000000000E+00  0.15165850881E+04  0.15165850881E+04  0.00000000000E+00 0. -1.
          1   -1    0    0  501    0 -0.00000000000E+00 -0.00000000000E+00 -0.12347486198E+03  0.12347486198E+03  0.00000000000E+00 0. -1.
          2    1    1    2  501    0 -0.48552200133E+02  0.28888291237E+01  0.89051945418E+03  0.89184671314E+03  0.00000000000E+00 0. -1.
          1    1    1    2  502    0 -0.13831286286E+02  0.22117021835E+02 -0.11299160818E+03  0.11596366092E+03  0.00000000000E+00 0. -1.
         22    1    1    2    0    0  0.63719656972E+02 -0.68164970970E+02  0.50476223802E+03  0.51331430419E+03  0.00000000000E+00 0.  1.
         22    1    1    2    0    0 -0.13361705531E+01  0.43159120011E+02  0.11082014206E+03  0.11893527180E+03  0.00000000000E+00 0.  1.
</event>
<event>
 6    1  0.4069520E-005  0.2384662E+03  0.7818608E-02  0.1162252E+00
          2   -1    0    0  502    0  0.00000000000E+00  0.00000000000E+00  0.65908208404E+03  0.65908208404E+03  0.00000000000E+00 0.  1.
          1   -1    0    0  501    0 -0.00000000000E+00 -0.00000000000E+00 -0.45629191540E+03  0.45629191540E+03  0.00000000000E+00 0. -1.
          2    1    1    2  501    0  0.14631374871E+03 -0.50307700781E+02  0.29715227154E+03  0.33501947749E+03  0.00000000000E+00 0.  1.
          1    1    1    2  502    0 -0.78516395037E+02 -0.73964108514E+02 -0.40376059351E+03  0.41792120131E+03  0.00000000000E+00 0. -1.
         22    1    1    2    0    0 -0.23583151803E+02  0.84771490043E+02  0.28508077844E+03  0.29835117028E+03  0.00000000000E+00 0.  1.
         22    1    1    2    0    0 -0.44214201868E+02  0.39500319252E+02  0.24317712178E+02  0.64082150349E+02  0.00000000000E+00 0. -1.
</event>
<event>
 6    1  0.4069520E-005  0.1050032E+03  0.7818608E-02  0.1378957E+00
          2   -1    0    0  502    0  0.00000000000E+00  0.00000000000E+00  0.13727363183E+03  0.13727363183E+03  0.00000000000E+00 0.  1.
          1   -1    0    0  501    0 -0.00000000000E+00 -0.00000000000E+00 -0.16029865073E+03  0.16029865073E+03  0.00000000000E+00 0.  1.
          2    1    1    2  501    0  0.69242592251E+02 -0.24418559383E+02 -0.47137665700E+02  0.87251144128E+02  0.00000000000E+00 0.  1.
          1    1    1    2  502    0 -0.84404232981E+02  0.17403931614E+01 -0.15389915557E+01  0.84436200818E+02  0.00000000000E+00 0.  1.
         22    1    1    2    0    0 -0.14222164593E+02  0.52843588763E+01  0.69031057620E+02  0.70678719079E+02  0.00000000000E+00 0.  1.
         22    1    1    2    0    0  0.29383805324E+02  0.17393807346E+02 -0.43379419261E+02  0.55206218533E+02  0.00000000000E+00 0. -1.
</event>
<event>
 6    1  0.4069520E-005  0.8936550E+02  0.7818608E-02  0.1404997E+00
          2   -1    0    0  502    0  0.00000000000E+00  0.00000000000E+00  0.37005035144E+02  0.37005035144E+02  0.00000000000E+00 0. -1.
          1   -1    0    0  501    0 -0.00000000000E+00 -0.00000000000E+00 -0.12679515305E+04  0.12679515305E+04  0.00000000000E+00 0.  1.
          2    1    1    2  501    0 -0.35789446119E+02  0.20155456900E+02 -0.10226890154E+03  0.11020914262E+03  0.00000000000E+00 0. -1.
          1    1    1    2  502    0  0.57394421060E+02 -0.62693093531E+02 -0.10165585935E+04  0.10201058364E+04  0.00000000000E+00 0.  1.
         22    1    1    2    0    0 -0.14732035875E+02  0.67746968785E+01  0.26638046187E+02  0.31185171212E+02  0.00000000000E+00 0.  1.
         22    1    1    2    0    0 -0.68729390666E+01  0.35762939753E+02 -0.13875704646E+03  0.14345641531E+03  0.00000000000E+00 0. -1.
</event>
<event>
 6    1  0.4069520E-005  0.1446592E+03  0.7818608E-02  0.1207507E+00
          2   -1    0    0  502    0  0.00000000000E+00  0.00000000000E+00  0.44105177871E+03  0.44105177871E+03  0.00000000000E+00 0. -1.
          1   -1    0    0  501    0 -0.00000000000E+00 -0.00000000000E+00 -0.12119529633E+03  0.12119529633E+03  0.00000000000E+00 0. -1.
          2    1    1    2  501    0  0.13365682312E+02 -0.24084240879E+02 -0.20208127848E+02  0.34162267980E+02  0.00000000000E+00 0. -1.
          1    1    1    2  502    0  0.13000216591E+03 -0.41330558659E+01 -0.64348840414E+01  0.13022692895E+03  0.00000000000E+00 0. -1.
         22    1    1    2    0    0  0.11551809175E+02  0.21030416330E+01 -0.50645172572E+01  0.12787353689E+02  0.00000000000E+00 0.  1.
         22    1    1    2    0    0 -0.15491965740E+03  0.26114255112E+02  0.35156401153E+03  0.38507052441E+03  0.00000000000E+00 0. -1.
</event>
<event>
 6    1  0.4069520E-005  0.8875276E+02  0.7818608E-02  0.1308278E+00
          2   -1    0    0  502    0  0.00000000000E+00  0.00000000000E+00  0.21793591052E+03  0.21793591052E+03  0.00000000000E+00 0. -1.
          1   -1    0    0  501    0 -0.00000000000E+00 -0.00000000000E+00 -0.12776323989E+03  0.12776323989E+03  0.00000000000E+00 0. -1.
          2    1    1    2  501    0  0.11924431551E+02 -0.25710573399E+02  0.52191285737E+01  0.28817788870E+02  0.00000000000E+00 0. -1.
          1    1    1    2  502    0 -0.48622675445E+01 -0.27998674783E+02 -0.89085907752E+02  0.93508643426E+02  0.00000000000E+00 0. -1.
         22    1    1    2    0    0  0.24306847935E+02 -0.36383020859E+02  0.43587055384E+02  0.61760654630E+02  0.00000000000E+00 0. -1.
         22    1    1    2    0    0 -0.31369011941E+02  0.90092269040E+02  0.13045239442E+03  0.16161206348E+03  0.00000000000E+00 0. -1.
</event>
<event>
 6    1  0.4069520E-005  0.2238926E+03  0.7818608E-02  0.1135985E+00
          2   -1    0    0  502    0  0.00000000000E+00  0.00000000000E+00  0.14088235656E+03  0.14088235656E+03  0.00000000000E+00 0.  1.
          1   -1    0    0  501    0 -0.00000000000E+00 -0.00000000000E+00 -0.65932270446E+03  0.65932270446E+03  0.00000000000E+00 0.  1.
          2    1    1    2  501    0  0.83884912150E+01  0.19872959014E+03 -0.71711333319E+02  0.21143871951E+03  0.00000000000E+00 0.  1.
          1    1    1    2  502    0 -0.15458148304E+02 -0.13445329012E+02 -0.34025502831E+03  0.34087125944E+03  0.00000000000E+00 0.  1.
         22    1    1    2    0    0  0.31494495360E+02 -0.19083410555E+03 -0.74474327449E+02  0.20725825564E+03  0.00000000000E+00 0.  1.
         22    1    1    2    0    0 -0.24424838271E+02  0.55498444276E+01 -0.31999658818E+02  0.40636826429E+02  0.00000000000E+00 0.  1.
</event>
<event>
 6    1  0.4069520E-005  0.1425960E+03  0.7818608E-02  0.1314976E+00
          2   -1    0    0  502    0  0.00000000000E+00  0.00000000000E+00  0.63292849809E+02  0.63292849809E+02  0.00000000000E+00 0. -1.
          1   -1    0    0  501    0 -0.00000000000E+00 -0.00000000000E+00 -0.72740771288E+03  0.72740771288E+03  0.00000000000E+00 0. -1.
          2    1    1    2  501    0  0.10522247995E+02  0.45969488480E+02 -0.32045544137E+03  0.32390677899E+03  0.00000000000E+00 0. -1.
          1    1    1    2  502    0 -0.13953103572E+02  0.20498835138E+02 -0.32082037359E+03  0.32177725751E+03  0.00000000000E+00 0. -1.
         22    1    1    2    0    0  0.15867635056E+02 -0.88151243906E+01  0.48891247622E+02  0.52152107860E+02  0.00000000000E+00 0. -1.
         22    1    1    2    0    0 -0.12436779479E+02 -0.57653199228E+02 -0.71730295736E+02  0.92864418328E+02  0.00000000000E+00 0. -1.
</event>
<event>
 6    1  0.5019059E-005  0.1759254E+03  0.7818608E-02  0.1172844E+00
          2   -1    0    0  502    0  0.00000000000E+00  0.00000000000E+00  0.81002577184E+03  0.81002577184E+03  0.00000000000E+00 0. -1.
          1   -1    0    0  501    0 -0.00000000000E+00 -0.00000000000E+00 -0.20885001024E+04  0.20885001024E+04  0.00000000000E+00 0. -1.
          2    1    1    2  501    0 -0.53008146997E+02  0.14437391036E+03  0.52095983378E+03  0.54318766375E+03  0.00000000000E+00 0. -1.
          1    1    1    2  502    0 -0.59404704896E+02 -0.25112715847E+02 -0.20388556666E+04  0.20398754856E+04  0.00000000000E+00 0. -1.
         22    1    1    2    0    0  0.12755360238E+03 -0.13144041396E+03  0.19807638953E+03  0.26977909480E+03  0.00000000000E+00 0. -1.
         22    1    1    2    0    0 -0.15140750483E+02  0.12179219450E+02  0.41345112741E+02  0.45683630100E+02  0.00000000000E+00 0.  1.
</event>
<event>
 6    1  0.4069520E-005  0.1070677E+03  0.7818608E-02  0.1394046E+00
          2   -1    0    0  502    0  0.00000000000E+00  0.00000000000E+00  0.87167876905E+02  0.87167876905E+02  0.00000000000E+00 0. -1.
          1   -1    0    0  501    0 -0.00000000000E+00 -0.00000000000E+00 -0.42462203940E+03  0.42462203940E+03  0.00000000000E+00 0. -1.
          2    1    1    2  501    0  0.74272142514E+01  0.31506070485E+02 -0.58768529614E+02  0.67093487478E+02  0.00000000000E+00 0. -1.
          1    1    1    2  502    0 -0.58018453568E+02 -0.88860121965E+02 -0.27419439503E+03  0.29401501407E+03  0.00000000000E+00 0. -1.
         22    1    1    2    0    0  0.83675389684E+01  0.74682202115E+01  0.58705887698E+02  0.59767644022E+02  0.00000000000E+00 0. -1.
         22    1    1    2    0    0  0.42223700348E+02  0.49885831269E+02 -0.63197125550E+02  0.90913770740E+02  0.00000000000E+00 0. -1.
</event>
<event>
 6    1  0.4069520E-005  0.2252605E+03  0.7818608E-02  0.1244754E+00
          2   -1    0    0  502    0  0.00000000000E+00  0.00000000000E+00  0.25877942400E+03  0.25877942400E+03  0.00000000000E+00 0. -1.
          1   -1    0    0  501    0 -0.00000000000E+00 -0.00000000000E+00 -0.25325027298E+03  0.25325027298E+03  0.00000000000E+00 0. -1.
          2    1    1    2  501    0  0.44426514690E+02  0.12896953371E+03 -0.10743780354E+03  0.17363679755E+03  0.00000000000E+00 0. -1.
          1    1    1    2  502    0  0.39000291249E+02 -0.15673344845E+03  0.71330206001E+02  0.17656272219E+03  0.00000000000E+00 0. -1.
         22    1    1    2    0    0 -0.76073572994E+02  0.43693409905E+02 -0.26362534497E+02  0.91603961717E+02  0.00000000000E+00 0. -1.
         22    1    1    2    0    0 -0.73532329443E+01 -0.15929495173E+02  0.67999283059E+02  0.70226215530E+02  0.00000000000E+00 0. -1.
</event>
<event>
 6    1  0.4069520E-005  0.1102049E+03  0.7818608E-02  0.1313993E+00
          2   -1    0    0  502    0  0.00000000000E+00  0.00000000000E+00  0.28547660352E+03  0.28547660352E+03  0.00000000000E+00 0.  1.
          1   -1    0    0  501    0 -0.00000000000E+00 -0.00000000000E+00 -0.83524378730E+02  0.83524378730E+02  0.00000000000E+00 0.  1.
          2    1    1    2  501    0 -0.22286268273E+02  0.84424002896E+01  0.13771344390E+02  0.27524567254E+02  0.00000000000E+00 0.  1.
          1    1    1    2  502    0 -0.21118561455E+02 -0.54924848863E+02 -0.40983115293E+02  0.71710169430E+02  0.00000000000E+00 0.  1.
         22    1    1    2    0    0  0.79465481381E+02  0.63851099448E+02  0.15561549589E+03  0.18603200852E+03  0.00000000000E+00 0.  1.
         22    1    1    2    0    0 -0.36060651652E+02 -0.17368650874E+02  0.73548499797E+02  0.83734237043E+02  0.00000000000E+00 0.  1.
</event>
<event>
 6    1  0.4069520E-005  0.1042683E+03  0.7818608E-02  0.1363457E+00
          2   -1    0    0  502    0  0.00000000000E+00  0.00000000000E+00  0.84514104358E+02  0.84514104358E+02  0.00000000000E+00 0. -1.
          1   -1    0    0  501    0 -0.00000000000E+00 -0.00000000000E+00 -0.22031271524E+03  0.22031271524E+03  0.00000000000E+00 0. -1.
          2    1    1    2  501    0 -0.84445940107E+01 -0.18464410803E+02 -0.79609752202E+01  0.21808777149E+02  0.00000000000E+00 0. -1.
          1    1    1    2  502    0 -0.63853511761E+02  0.41881325482E+02 -0.11341133485E+03  0.13672398203E+03  0.00000000000E+00 0. -1.
         22    1    1    2    0    0 -0.18387986902E+02  0.79152451158E+01  0.33513787939E+02  0.39037714451E+02  0.00000000000E+00 0. -1.
         22    1    1    2    0    0  0.90686092674E+02 -0.31332159795E+02 -0.47940088748E+02  0.10725634597E+03  0.00000000000E+00 0. -1.
</event>
<event>
 6    1  0.4069520E-005  0.2971676E+03  0.7818608E-02  0.1157808E+00
          2   -1    0    0  502    0  0.00000000000E+00  0.00000000000E+00  0.43374295115E+03  0.43374295115E+03  0.00000000000E+00 0.  1.
          1   -1    0    0  501    0 -0.00000000000E+00 -0.00000000000E+00 -0.22625284382E+03  0.22625284382E+03  0.00000000000E+00 0.  1.
          2    1    1    2  501    0 -0.27513880429E+02 -0.19668136151E+02 -0.41895869601E+02  0.53843412647E+02  0.00000000000E+00 0.  1.
          1    1    1    2  502    0 -0.16056074676E+03  0.89334031823E+02 -0.80613103240E+02  0.20064594453E+03  0.00000000000E+00 0.  1.
         22    1    1    2    0    0  0.37410732468E+02  0.33807653901E+02  0.97494577423E+02  0.10976207447E+03  0.00000000000E+00 0.  1.
         22    1    1    2    0    0  0.15066389472E+03 -0.10347354957E+03  0.23250450275E+03  0.29574436332E+03  0.00000000000E+00 0.  1.
</event>
<event>
 6    1  0.4069520E-005  0.9453431E+02  0.7818608E-02  0.1320615E+00
          2   -1    0    0  502    0  0.00000000000E+00  0.00000000000E+00  0.27355491159E+03  0.27355491159E+03  0.00000000000E+00 0. -1.
          1   -1    0    0  501    0 -0.00000000000E+00 -0.00000000000E+00 -0.14807735150E+03  0.14807735150E+03  0.00000000000E+00 0. -1.
          2    1    1    2  501    0 -0.47266217916E+02  0.25470254576E+02 -0.11126858992E+03  0.12354565281E+03  0.00000000000E+00 0. -1.
          1    1    1    2  502    0  0.33949131467E+02  0.23181749740E+02  0.35601046928E+02  0.54381721109E+02  0.00000000000E+00 0. -1.
         22    1    1    2    0    0  0.43791670015E+02 -0.34849860706E+02  0.20263062023E+03  0.21021748597E+03  0.00000000000E+00 0. -1.
         22    1    1    2    0    0 -0.30474583566E+02 -0.13802143610E+02 -0.14855171407E+01  0.33487403197E+02  0.00000000000E+00 0. -1.
</event>
<event>
 6    1  0.4069520E-005  0.2218458E+03  0.7818608E-02  0.1213337E+00
          2   -1    0    0  502    0  0.00000000000E+00  0.00000000000E+00  0.64483743973E+03  0.64483743973E+03  0.00000000000E+00 0. -1.
          1   -1    0    0  501    0 -0.00000000000E+00 -0.00000000000E+00 -0.41369273050E+02  0.41369273050E+02  0.00000000000E+00 0. -1.
          2    1    1    2  501    0 -0.81513629626E+02  0.40930758992E+01  0.73753523807E+02  0.11000366975E+03  0.00000000000E+00 0. -1.
          1    1    1    2  502    0  0.96528856134E+01 -0.31639216545E+02  0.78060983880E+01  0.33987547665E+02  0.00000000000E+00 0. -1.
         22    1    1    2    0    0 -0.35905672955E+02  0.32983655038E+01  0.14824329972E+03  0.15256530562E+03  0.00000000000E+00 0.  1.
         22    1    1    2    0    0  0.10776641697E+03  0.24247775142E+02  0.37366524476E+03  0.38965018975E+03  0.00000000000E+00 0. -1.
</event>
<event>
 6    1  0.4069520E-005  0.9875040E+02  0.7818608E-02  0.1330575E+00
          2   -1    0    0  502    0  0.00000000000E+00  0.00000000000E+00  0.97420300051E+03  0.97420300051E+03  0.00000000000E+00 0. -1.
          1   -1    0    0  501    0 -0.00000000000E+00 -0.00000000000E+00 -0.36498123901E+02  0.36498123901E+02  0.00000000000E+00 0. -1.
          2    1    1    2  501    0  0.40767017449E+02 -0.20044536422E+02  0.15826586790E+02  0.48106278192E+02  0.00000000000E+00 0. -1.
          1    1    1    2  502    0 -0.69295711877E+02  0.59076351461E+02  0.68389367219E+03  0.68992931945E+03  0.00000000000E+00 0. -1.
         22    1    1    2    0    0 -0.25281306679E+02 -0.32796499764E+02  0.20522272943E+03  0.20935883917E+03  0.00000000000E+00 0.  1.
         22    1    1    2    0    0  0.53810001107E+02 -0.62353152760E+01  0.32761888205E+02  0.63306687597E+02  0.00000000000E+00 0. -1.
</event>
<event>
 6    1  0.4069520E-005  0.1032110E+03  0.7818608E-02  0.1330577E+00
          2   -1    0    0  502    0  0.00000000000E+00  0.00000000000E+00  0.69804968858E+02  0.69804968858E+02  0.00000000000E+00 0. -1.
          1   -1    0    0  501    0 -0.00000000000E+00 -0.00000000000E+00 -0.72953521509E+03  0.72953521509E+03  0.00000000000E+00 0.  1.
          2    1    1    2  501    0 -0.48582833948E+02 -0.35391253299E+01 -0.27438686576E+02  0.55907948304E+02  0.00000000000E+00 0. -1.
          1    1    1    2  502    0 -0.25771196989E+02  0.48318645932E+02 -0.58434069138E+03  0.58690109025E+03  0.00000000000E+00 0.  1.
         22    1    1    2    0    0  0.53002231749E+02 -0.42245408037E+02 -0.87999359789E+02  0.11107564267E+03  0.00000000000E+00 0.  1.
         22    1    1    2    0    0  0.21351799188E+02 -0.25341125654E+01  0.40048491514E+02  0.45455502721E+02  0.00000000000E+00 0. -1.
</event>
<event>
 6    1  0.4069520E-005  0.1068165E+03  0.7818608E-02  0.1280923E+00
          2   -1    0    0  502    0  0.00000000000E+00  0.00000000000E+00  0.16843065753E+02  0.16843065753E+02  0.00000000000E+00 0.  1.
          1   -1    0    0  501    0 -0.00000000000E+00 -0.00000000000E+00 -0.15385487781E+04  0.15385487781E+04  0.00000000000E+00 0.  1.
          2    1    1    2  501    0 -0.11804580692E+02  0.21928898614E+02 -0.44975696832E+03  0.45044595155E+03  0.00000000000E+00 0.  1.
          1    1    1    2  502    0  0.62495282396E+01  0.26771540809E+02 -0.81457370744E+03  0.81503748187E+03  0.00000000000E+00 0.  1.
         22    1    1    2    0    0  0.40725671849E+02 -0.74689672218E+02 -0.13117111447E+03  0.15634253661E+03  0.00000000000E+00 0.  1.
         22    1    1    2    0    0 -0.35170619396E+02  0.25989232795E+02 -0.12620392211E+03  0.13356587381E+03  0.00000000000E+00 0.  1.
</event>
<event>
 6    1  0.4069520E-005  0.7554593E+02  0.7818608E-02  0.1454816E+00
          2   -1    0    0  502    0  0.00000000000E+00  0.00000000000E+00  0.15230701905E+02  0.15230701905E+02  0.00000000000E+00 0. -1.
          1   -1    0    0  501    0 -0.00000000000E+00 -0.00000000000E+00 -0.10225736144E+04  0.10225736144E+04  0.00000000000E+00 0.  1.
          2    1    1    2  501    0 -0.35010942058E+01  0.21143448171E+02 -0.18157982687E+03  0.18284019413E+03  0.00000000000E+00 0. -1.
          1    1    1    2  502    0  0.15200979802E+02  0.21561068314E+02 -0.54531143899E+03  0.54594918715E+03  0.00000000000E+00 0.  1.
         22    1    1    2    0    0 -0.10036179244E+02 -0.55201631201E+02 -0.28860020843E+03  0.29400344434E+03  0.00000000000E+00 0. -1.
         22    1    1    2    0    0 -0.16637063523E+01  0.12497114716E+02  0.81485617580E+01  0.15011490724E+02  0.00000000000E+00 0.  1.
</event>
<event>
 6    1  0.4069520E-005  0.5428594E+02  0.7818608E-02  0.1425341E+00
          2   -1    0    0  502    0  0.00000000000E+00  0.00000000000E+00  0.13112580238E+03  0.13112580238E+03  0.00000000000E+00 0.  1.
          1   -1    0    0  501    0 -0.00000000000E+00 -0.00000000000E+00 -0.88041138295E+02  0.88041138295E+02  0.00000000000E+00 0.  1.
          2    1    1    2  501    0 -0.20811885566E+02 -0.12917284978E+02 -0.35486936567E+02  0.43119757640E+02  0.00000000000E+00 0.  1.
          1    1    1    2  502    0  0.12841644085E+02 -0.19317068956E+02 -0.16405886242E+00  0.23196635342E+02  0.00000000000E+00 0.  1.
         22    1    1    2    0    0  0.17307334235E+02  0.51116687961E+02  0.10567233818E+03  0.11865539458E+03  0.00000000000E+00 0.  1.
         22    1    1    2    0    0 -0.93370927536E+01 -0.18882334027E+02 -0.26936678662E+02  0.34195153118E+02  0.00000000000E+00 0. -1.
</event>
<event>
 6    1  0.4069520E-005  0.1122055E+03  0.7818608E-02  0.1370880E+00
          2   -1    0    0  502    0  0.00000000000E+00  0.00000000000E+00  0.69436550119E+02  0.69436550119E+02  0.00000000000E+00 0. -1.
          1   -1    0    0  501    0 -0.00000000000E+00 -0.00000000000E+00 -0.24072371165E+03  0.24072371165E+03  0.00000000000E+00 0. -1.
          2    1    1    2  501    0  0.30349757947E+02  0.19190743236E+02 -0.76744861470E+02  0.84729960436E+02  0.00000000000E+00 0. -1.
          1    1    1    2  502    0  0.46962462182E+02 -0.28993934837E+02 -0.29503665332E+01  0.55270478324E+02  0.00000000000E+00 0. -1.
         22    1    1    2    0    0 -0.45233493425E+01 -0.13459289747E+02  0.26172044375E+02  0.29775645695E+02  0.00000000000E+00 0. -1.
         22    1    1    2    0    0 -0.72788870786E+02  0.23262481348E+02 -0.11776397790E+03  0.14038417732E+03  0.00000000000E+00 0. -1.
</event>
<event>
 6    1  0.4069520E-005  0.3354862E+03  0.7818608E-02  0.1178599E+00
          2   -1    0    0  502    0  0.00000000000E+00  0.00000000000E+00  0.12827449799E+04  0.12827449799E+04  0.00000000000E+00 0.  1.
          1   -1    0    0  501    0 -0.00000000000E+00 -0.00000000000E+00 -0.17955989564E+03  0.17955989564E+03  0.00000000000E+00 0. -1.
          2    1    1    2  501    0  0.20968183329E+03  0.31391861239E+02  0.53924448132E+03  0.57942776150E+03  0.00000000000E+00 0.  1.
          1    1    1    2  502    0 -0.31692412919E+03 -0.34759879506E+02  0.25741739702E+02  0.31986214225E+03  0.00000000000E+00 0. -1.
         22    1    1    2    0    0  0.11010424775E+03 -0.18190578666E+02  0.52674237738E+03  0.53843418785E+03  0.00000000000E+00 0.  1.
         22    1    1    2    0    0 -0.28619518471E+01  0.21558596933E+02  0.11456485846E+02  0.24580783918E+02  0.00000000000E+00 0. -1.
</event>
<event>
 6    1  0.4069520E-005  0.9374021E+02  0.7818608E-02  0.1371548E+00
          2   -1    0    0  502    0  0.00000000000E+00  0.00000000000E+00  0.24874943272E+02  0.24874943272E+02  0.00000000000E+00 0. -1.
          1   -1    0    0  501    0 -0.00000000000E+00 -0.00000000000E+00 -0.58872581902E+03  0.58872581902E+03  0.00000000000E+00 0. -1.
          2    1    1    2  501    0 -0.40761710380E+02  0.95762080566E+01 -0.13654761568E+03  0.14282321990E+03  0.00000000000E+00 0. -1.
          1    1    1    2  502    0  0.32225310160E+02 -0.48840630417E+02 -0.21533974842E+03  0.22314812355E+03  0.00000000000E+00 0. -1.
         22    1    1    2    0    0 -0.23472544284E+02  0.53941907465E+01  0.59336183446E+01  0.24804545060E+02  0.00000000000E+00 0. -1.
         22    1    1    2    0    0  0.32008944504E+02  0.33870231614E+02 -0.21789712998E+03  0.22282487377E+03  0.00000000000E+00 0. -1.
</event>
<event>
 6    1  0.4069520E-005  0.7584524E+02  0.7818608E-02  0.1404313E+00
          2   -1    0    0  502    0  0.00000000000E+00  0.00000000000E+00  0.13950067696E+03  0.13950067696E+03  0.00000000000E+00 0.  1.
          1   -1    0    0  501    0 -0.00000000000E+00 -0.00000000000E+00 -0.11607646960E+04  0.11607646960E+04  0.00000000000E+00 0.  1.
          2    1    1    2  501    0 -0.30878015354E+02  0.51218824923E+01  0.12349652923E+02  0.33648171418E+02  0.00000000000E+00 0.  1.
          1    1    1    2  502    0  0.13262917444E+02 -0.44596581781E+02 -0.11141242255E+04  0.11150953098E+04  0.00000000000E+00 0.  1.
         22    1    1    2    0    0  0.90849320518E+01  0.14056888337E+02 -0.31864499508E+02  0.35992755229E+02  0.00000000000E+00 0. -1.
         22    1    1    2    0    0  0.85301658587E+01  0.25417810952E+02  0.11237505303E+03  0.11552913653E+03  0.00000000000E+00 0. -1.
</event>
<event>
 6    1  0.4069520E-005  0.1229327E+03  0.7818608E-02  0.1343701E+00
          2   -1    0    0  502    0  0.00000000000E+00  0.00000000000E+00  0.47087471697E+02  0.47087471697E+02  0.00000000000E+00 0. -1.
          1   -1    0    0  501    0 -0.00000000000E+00 -0.00000000000E+00 -0.83922758355E+03  0.83922758355E+03  0.00000000000E+00 0. -1.
          2    1    1    2  501    0  0.58457486180E+02 -0.47442777092E+00 -0.10208534114E+03  0.11763893764E+03  0.00000000000E+00 0. -1.
          1    1    1    2  502    0  0.37244402477E+01  0.19994666622E+02 -0.60552046125E+03  0.60586193736E+03  0.00000000000E+00 0. -1.
         22    1    1    2    0    0 -0.62866135283E+02 -0.24529791392E+01 -0.11316363482E+03  0.12947654737E+03  0.00000000000E+00 0. -1.
         22    1    1    2    0    0  0.68420885524E+00 -0.17067259712E+02  0.28629325360E+02  0.33337632885E+02  0.00000000000E+00 0. -1.
</event>
<event>
 6    1  0.4069520E-005  0.1403748E+03  0.7818608E-02  0.1249347E+00
          2   -1    0    0  502    0  0.00000000000E+00  0.00000000000E+00  0.46048748440E+03  0.46048748440E+03  0.00000000000E+00 0. -1.
          1   -1    0    0  501    0 -0.00000000000E+00 -0.00000000000E+00 -0.94319703238E+02  0.94319703238E+02  0.00000000000E+00 0. -1.
          2    1    1    2  501    0  0.84301647278E+02  0.42286183613E+02 -0.29744766193E+02  0.98892063252E+02  0.00000000000E+00 0. -1.
          1    1    1    2  502    0 -0.87153645435E+00 -0.43493474696E+02  0.22016096160E+03  0.22441767072E+03  0.00000000000E+00 0. -1.
         22    1    1    2    0    0 -0.36603595563E+02  0.44888581637E+02  0.17073224273E+02  0.60384625167E+02  0.00000000000E+00 0. -1.
         22    1    1    2    0    0 -0.46826515260E+02 -0.43681290554E+02  0.15867836149E+03  0.17111282851E+03  0.00000000000E+00 0. -1.
</event>
<event>
 6    1  0.4069520E-005  0.1290374E+03  0.7818608E-02  0.1307848E+00
          2   -1    0    0  502    0  0.00000000000E+00  0.00000000000E+00  0.34633172405E+02  0.34633172405E+02  0.00000000000E+00 0. -1.
          1   -1    0    0  501    0 -0.00000000000E+00 -0.00000000000E+00 -0.14552053171E+04  0.14552053171E+04  0.00000000000E+00 0. -1.
          2    1    1    2  501    0 -0.16837022241E+02 -0.24196191261E+02 -0.32019858294E+03  0.32155259835E+03  0.00000000000E+00 0. -1.
          1    1    1    2  502    0  0.58444626932E+02  0.49189756473E+02 -0.99995507666E+03  0.10028686663E+04  0.00000000000E+00 0. -1.
         22    1    1    2    0    0  0.27545226403E+02 -0.42515099959E+01  0.13170038757E+02  0.30826364620E+02  0.00000000000E+00 0. -1.
         22    1    1    2    0    0 -0.69152831094E+02 -0.20742055216E+02 -0.11358852389E+03  0.13459086025E+03  0.00000000000E+00 0. -1.
</event>
<event>
 6    1  0.4069520E-005  0.8744541E+02  0.7818608E-02  0.1347478E+00
          2   -1    0    0  502    0  0.00000000000E+00  0.00000000000E+00  0.74434699731E+03  0.74434699731E+03  0.00000000000E+00 0. -1.
          1   -1    0    0  501    0 -0.00000000000E+00 -0.00000000000E+00 -0.27857325822E+04  0.27857325822E+04  0.00000000000E+00 0.  1.
          2    1    1    2  501    0  0.22057406956E+00  0.33476806102E+02  0.89171856846E+02  0.95248964577E+02  0.00000000000E+00 0. -1.
          1    1    1    2  502    0  0.45670898218E+02 -0.50207670030E+02 -0.27755592223E+04  0.27763889564E+04  0.00000000000E+00 0.  1.
         22    1    1    2    0    0 -0.67804736916E+02  0.55434399721E+02  0.40640184970E+03  0.41573178668E+03  0.00000000000E+00 0. -1.
         22    1    1    2    0    0  0.21913264628E+02 -0.38703535794E+02  0.23859993087E+03  0.24270987178E+03  0.00000000000E+00 0.  1.
</event>
<event>
 6    1  0.4069520E-005  0.7782667E+02  0.7818608E-02  0.1362877E+00
          2   -1    0    0  502    0  0.00000000000E+00  0.00000000000E+00  0.70433459047E+02  0.70433459047E+02  0.00000000000E+00 0.  1.
          1   -1    0    0  501    0 -0.00000000000E+00 -0.00000000000E+00 -0.18512607305E+03  0.18512607305E+03  0.00000000000E+00 0.  1.
          2    1    1    2  501    0 -0.20708659002E+02 -0.15574151563E+02 -0.18982213690E+02  0.32120510443E+02  0.00000000000E+00 0.  1.
          1    1    1    2  502    0  0.25609861450E+02  0.21756120129E+02 -0.97056928901E+02  0.10270949914E+03  0.00000000000E+00 0.  1.
         22    1    1    2    0    0 -0.20607563931E+01 -0.52063166924E+02  0.35855410601E+02  0.63248956801E+02  0.00000000000E+00 0.  1.
         22    1    1    2    0    0 -0.28404460554E+01  0.45881198358E+02 -0.34508882015E+02  0.57480565712E+02  0.00000000000E+00 0.  1.
</event>
<event>
 6    1  0.4069520E-005  0.9400245E+02  0.7818608E-02  0.1298514E+00
          2   -1    0    0  502    0  0.00000000000E+00  0.00000000000E+00  0.23294008494E+03  0.23294008494E+03  0.00000000000E+00 0. -1.
          1   -1    0    0  501    0 -0.00000000000E+00 -0.00000000000E+00 -0.54489814043E+02  0.54489814043E+02  0.00000000000E+00 0. -1.
          2    1    1    2  501    0  0.20519373865E+02  0.36413714631E+02  0.58019349969E+02  0.71506980693E+02  0.00000000000E+00 0. -1.
          1    1    1    2  502    0 -0.36507640348E+02  0.18670694326E+02  0.28754794303E+02  0.50082340458E+02  0.00000000000E+00 0. -1.
         22    1    1    2    0    0  0.43554336957E+02  0.26580689326E+02  0.24718954493E+02  0.56696913708E+02  0.00000000000E+00 0.  1.
         22    1    1    2    0    0 -0.27566070474E+02 -0.81665098282E+02  0.66957172137E+02  0.10914366413E+03  0.00000000000E+00 0. -1.
</event>
<event>
 6    1  0.4069520E-005  0.2235096E+03  0.7818608E-02  0.1154897E+00
          2   -1    0    0  502    0  0.00000000000E+00  0.00000000000E+00  0.16591173607E+03  0.16591173607E+03  0.00000000000E+00 0. -1.
          1   -1    0    0  501    0 -0.00000000000E+00 -0.00000000000E+00 -0.11282766145E+04  0.11282766145E+04  0.00000000000E+00 0.  1.
          2    1    1    2  501    0 -0.57469001065E+02  0.97110050286E+02 -0.10957942104E+03  0.15729175905E+03  0.00000000000E+00 0. -1.
          1    1    1    2  502    0  0.97912856907E+02  0.62987786470E+02 -0.91409784629E+03  0.92148210042E+03  0.00000000000E+00 0.  1.
         22    1    1    2    0    0 -0.68774465815E+02 -0.14326140974E+03  0.16471533989E+02  0.15976567247E+03  0.00000000000E+00 0. -1.
         22    1    1    2    0    0  0.28330609972E+02 -0.16836427015E+02  0.44840854956E+02  0.55648818579E+02  0.00000000000E+00 0.  1.
</event>
<event>
 6    1  0.4069520E-005  0.2135029E+03  0.7818608E-02  0.1204317E+00
          2   -1    0    0  502    0  0.00000000000E+00  0.00000000000E+00  0.28268263538E+02  0.28268263538E+02  0.00000000000E+00 0. -1.
          1   -1    0    0  501    0 -0.00000000000E+00 -0.00000000000E+00 -0.18290969287E+04  0.18290969287E+04  0.00000000000E+00 0.  1.
          2    1    1    2  501    0 -0.19258652519E+02  0.17323214604E+02 -0.48391865604E+03  0.48461144758E+03  0.00000000000E+00 0. -1.
          1    1    1    2  502    0  0.20424911971E+02  0.13275613268E+01 -0.12082092712E+04  0.12083826308E+04  0.00000000000E+00 0.  1.
         22    1    1    2    0    0  0.19362091281E+01  0.47451703412E+02 -0.78231652946E+02  0.91518329230E+02  0.00000000000E+00 0.  1.
         22    1    1    2    0    0 -0.31024685803E+01 -0.66102479343E+02 -0.30469084981E+02  0.72852784615E+02  0.00000000000E+00 0. -1.
</event>
<event>
 6    1  0.4069520E-005  0.4777796E+02  0.7818608E-02  0.1461620E+00
          2   -1    0    0  502    0  0.00000000000E+00  0.00000000000E+00  0.10483250261E+03  0.10483250261E+03  0.00000000000E+00 0. -1.
          1   -1    0    0  501    0 -0.00000000000E+00 -0.00000000000E+00 -0.41869540633E+03  0.41869540633E+03  0.00000000000E+00 0.  1.
          2    1    1    2  501    0 -0.62910324431E+02  0.11239465585E+02 -0.19455461682E+03  0.20478167260E+03  0.00000000000E+00 0. -1.
          1    1    1    2  502    0  0.31383946598E+02 -0.16306202708E+02 -0.17221495753E+03  0.17580908949E+03  0.00000000000E+00 0.  1.
         22    1    1    2    0    0 -0.12726851702E+02  0.92446580025E+01 -0.38338980391E+02  0.41440485920E+02  0.00000000000E+00 0.  1.
         22    1    1    2    0    0  0.44253229535E+02 -0.41779208791E+01  0.91245651025E+02  0.10149666092E+03  0.00000000000E+00 0. -1.
</event>
<event>
 6    1  0.4069520E-005  0.2139803E+03  0.7818608E-02  0.1195052E+00
          2   -1    0    0  502    0  0.00000000000E+00  0.00000000000E+00  0.21821707460E+03  0.21821707460E+03  0.00000000000E+00 0.  1.
          1   -1    0    0  501    0 -0.00000000000E+00 -0.00000000000E+00 -0.85051817498E+03  0.85051817498E+03  0.00000000000E+00 0.  1.
          2    1    1    2  501    0 -0.14630118174E+03 -0.16939489839E+03 -0.68256105541E+02  0.23400334041E+03  0.00000000000E+00 0.  1.
          1    1    1    2  502    0  0.12771005155E+03  0.15746528595E+03 -0.65188544602E+03  0.68268573171E+03  0.00000000000E+00 0.  1.
         22    1    1    2    0    0 -0.12165119942E+02 -0.37425025502E+02 -0.77956104198E+01  0.40117255874E+02  0.00000000000E+00 0. -1.
         22    1    1    2    0    0  0.30756250133E+02  0.49354637941E+02  0.95636061598E+02  0.11192892158E+03  0.00000000000E+00 0.  1.
</event>
<event>
 6    1  0.4069520E-005  0.1561680E+03  0.7818608E-02  0.1218073E+00
          2   -1    0    0  502    0  0.00000000000E+00  0.00000000000E+00  0.38247068835E+03  0.38247068835E+03  0.00000000000E+00 0. -1.
          1   -1    0    0  501    0 -0.00000000000E+00 -0.00000000000E+00 -0.19221147138E+03  0.19221147138E+03  0.00000000000E+00 0. -1.
          2    1    1    2  501    0  0.33687079907E+02 -0.70745665841E+02  0.49107402712E+02  0.92473269592E+02  0.00000000000E+00 0. -1.
          1    1    1    2  502    0  0.34287034947E+02  0.85495848809E+01 -0.14896237429E+03  0.15309632628E+03  0.00000000000E+00 0. -1.
         22    1    1    2    0    0 -0.54517182550E+02 -0.26103951949E+02  0.16222747408E+03  0.17312219051E+03  0.00000000000E+00 0. -1.
         22    1    1    2    0    0 -0.13456932304E+02  0.88300032908E+02  0.12788671447E+03  0.15599037335E+03  0.00000000000E+00 0. -1.
</event>
<event>
 6    1  0.4069520E-005  0.3829436E+02  0.7818608E-02  0.1618430E+00
          2   -1    0    0  502    0  0.00000000000E+00  0.00000000000E+00  0.39204710655E+02  0.39204710655E+02  0.00000000000E+00 0.  1.
          1   -1    0    0  501    0 -0.00000000000E+00 -0.00000000000E+00 -0.13724790027E+04  0.13724790027E+04  0.00000000000E+00 0.  1.
          2    1    1    2  501    0  0.23986069969E+02  0.30292526110E+01 -0.93196233051E+02  0.96281076951E+02  0.00000000000E+00 0.  1.
          1    1    1    2  502    0 -0.28696801419E+02  0.33679198490E+01 -0.11807849966E+04  0.11811384583E+04  0.00000000000E+00 0.  1.
         22    1    1    2    0    0  0.93101937202E+01 -0.16742091174E+02 -0.94944769371E+02  0.96858074288E+02  0.00000000000E+00 0. -1.
         22    1    1    2    0    0 -0.45994622702E+01  0.10344918714E+02  0.35651706989E+02  0.37406103882E+02  0.00000000000E+00 0.  1.
</event>
<event>
 6    1  0.4069520E-005  0.1725831E+03  0.7818608E-02  0.1262593E+00
          2   -1    0    0  502    0  0.00000000000E+00  0.00000000000E+00  0.10064079253E+03  0.10064079253E+03  0.00000000000E+00 0.  1.
          1   -1    0    0  501    0 -0.00000000000E+00 -0.00000000000E+00 -0.39491860509E+03  0.39491860509E+03  0.00000000000E+00 0.  1.
          2    1    1    2  501    0 -0.76013744761E+01 -0.55966366209E+02 -0.28978159254E+02  0.63480302097E+02  0.00000000000E+00 0.  1.
          1    1    1    2  502    0  0.97580569380E+02  0.11352948075E+03 -0.20676285519E+03  0.25526807244E+03  0.00000000000E+00 0.  1.
         22    1    1    2    0    0  0.20249346440E+02  0.18421065716E+02  0.62496811166E+01  0.28078999402E+02  0.00000000000E+00 0.  1.
         22    1    1    2    0    0 -0.11022854134E+03 -0.75984180255E+02 -0.64786479230E+02  0.14873202368E+03  0.00000000000E+00 0.  1.
</event>
<event>
 6    1  0.4069520E-005  0.2190805E+03  0.7818608E-02  0.1241169E+00
          2   -1    0    0  502    0  0.00000000000E+00  0.00000000000E+00  0.26559139786E+03  0.26559139786E+03  0.00000000000E+00 0.  1.
          1   -1    0    0  501    0 -0.00000000000E+00 -0.00000000000E+00 -0.80899645460E+03  0.80899645460E+03  0.00000000000E+00 0.  1.
          2    1    1    2  501    0  0.47281680311E+02  0.36514437775E+02 -0.23864152562E+02  0.64330080340E+02  0.00000000000E+00 0.  1.
          1    1    1    2  502    0  0.78314610326E+02  0.15160480098E+01 -0.72914489251E+03  0.73334013313E+03  0.00000000000E+00 0.  1.
         22    1    1    2    0    0 -0.61376578578E+01  0.19565076392E+02  0.10779263846E+03  0.10972563950E+03  0.00000000000E+00 0. -1.
         22    1    1    2    0    0 -0.11945863278E+03 -0.57595562176E+02  0.10181134987E+03  0.16719199948E+03  0.00000000000E+00 0.  1.
</event>
<event>
 6    1  0.4069520E-005  0.5309507E+02  0.7818608E-02  0.1454876E+00
          2   -1    0    0  502    0  0.00000000000E+00  0.00000000000E+00  0.12175133751E+03  0.12175133751E+03  0.00000000000E+00 0. -1.
          1   -1    0    0  501    0 -0.00000000000E+00 -0.00000000000E+00 -0.16174309698E+03  0.16174309698E+03  0.00000000000E+00 0. -1.
          2    1    1    2  501    0  0.37351251217E+02 -0.15629652114E+02 -0.10433426060E+03  0.11191532481E+03  0.00000000000E+00 0. -1.
          1    1    1    2  502    0 -0.14513875564E+02  0.24570065828E+02  0.19199601877E+02  0.34394264506E+02  0.00000000000E+00 0. -1.
         22    1    1    2    0    0 -0.29474841098E+02  0.20076804790E+02  0.82229459274E+02  0.89629952141E+02  0.00000000000E+00 0. -1.
         22    1    1    2    0    0  0.66374654452E+01 -0.29017218504E+02 -0.37086560016E+02  0.47554893030E+02  0.00000000000E+00 0. -1.
</event>
<event>
 6    1  0.4069520E-005  0.3246902E+03  0.7818608E-02  0.1160994E+00
          2   -1    0    0  502    0  0.00000000000E+00  0.00000000000E+00  0.24873660070E+03  0.24873660070E+03  0.00000000000E+00 0. -1.
          1   -1    0    0  501    0 -0.00000000000E+00 -0.00000000000E+00 -0.95342651157E+03  0.95342651157E+03  0.00000000000E+00 0. -1.
          2    1    1    2  501    0  0.25619209976E+02 -0.12606561382E+03 -0.28540346593E+03  0.31305593953E+03  0.00000000000E+00 0. -1.
          1    1    1    2  502    0  0.16225177760E+02  0.14699147773E+02 -0.62289211245E+03  0.62327674840E+03  0.00000000000E+00 0. -1.
         22    1    1    2    0    0  0.45244540835E+01  0.35507367475E+02  0.16511102112E+03  0.16894642087E+03  0.00000000000E+00 0. -1.
         22    1    1    2    0    0 -0.46368841820E+02  0.75859098573E+02  0.38494646397E+02  0.96884003474E+02  0.00000000000E+00 0. -1.
</event>
<event>
 6    1  0.4069520E-005  0.6153526E+02  0.7818608E-02  0.1394052E+00
          2   -1    0    0  502    0  0.00000000000E+00  0.00000000000E+00  0.14857421739E+03  0.14857421739E+03  0.00000000000E+00 0.  1.
          1   -1    0    0  501    0 -0.00000000000E+00 -0.00000000000E+00 -0.61136655628E+02  0.61136655628E+02  0.00000000000E+00 0.  1.
          2    1    1    2  501    0  0.26175114534E+02 -0.87174924156E+01  0.33541135657E+02  0.43429702693E+02  0.00000000000E+00 0.  1.
          1    1    1    2  502    0  0.19023584829E+02  0.93520213100E+01 -0.72068837466E+01  0.22389646171E+02  0.00000000000E+00 0.  1.
         22    1    1    2    0    0  0.34991063967E+02 -0.62965507151E+01 -0.96077756875E+01  0.36828392065E+02  0.00000000000E+00 0.  1.
         22    1    1    2    0    0 -0.80189763331E+02  0.56620218207E+01  0.70711085537E+02  0.10706313209E+03  0.00000000000E+00 0.  1.
</event>
<event>
 6    1  0.4069520E-005  0.3507514E+02  0.7818608E-02  0.1553412E+00
          2   -1    0    0  502    0  0.00000000000E+00  0.00000000000E+00  0.20454953439E+03  0.20454953439E+03  0.00000000000E+00 0. -1.
          1   -1    0    0  501    0 -0.00000000000E+00 -0.00000000000E+00 -0.25524838407E+03  0.25524838407E+03  0.00000000000E+00 0. -1.
          2    1    1    2  501    0 -0.23293542096E+02 -0.16092649277E+02 -0.17119074613E+00  0.28312396056E+02  0.00000000000E+00 0. -1.
          1    1    1    2  502    0  0.16894043321E+02  0.13458590568E+02 -0.21886830795E+03  0.21993153158E+03  0.00000000000E+00 0. -1.
         22    1    1    2    0    0  0.27154676871E+02  0.16665152835E+02  0.18079169538E+03  0.18357761550E+03  0.00000000000E+00 0. -1.
         22    1    1    2    0    0 -0.20755178096E+02 -0.14031094126E+02 -0.12451046366E+02  0.27976375315E+02  0.00000000000E+00 0. -1.
</event>
<event>
 6    1  0.5166437E-005  0.1663563E+03  0.7818608E-02  0.1264428E+00
          2   -1    0    0  502    0  0.00000000000E+00  0.00000000000E+00  0.46291970361E+03  0.46291970361E+03  0.00000000000E+00 0.  1.
          1   -1    0    0  501    0 -0.00000000000E+00 -0.00000000000E+00 -0.57104215924E+03  0.57104215924E+03  0.00000000000E+00 0.  1.
          2    1    1    2  501    0 -0.11529327273E+02 -0.27170299681E+02  0.12484519148E+01  0.29541652024E+02  0.00000000000E+00 0.  1.
          1    1    1    2  502    0 -0.37807657672E+02 -0.79162206488E+01 -0.54590419442E+03  0.54726910657E+03  0.00000000000E+00 0.  1.
         22    1    1    2    0    0 -0.21096450533E+02  0.20603846718E+02  0.22959404030E+02  0.37372623109E+02  0.00000000000E+00 0.  1.
         22    1    1    2    0    0  0.70433435477E+02  0.14482673611E+02  0.41357388283E+03  0.41977848114E+03  0.00000000000E+00 0.  1.
</event>
<event>
 6    1  0.4069520E-005  0.8317877E+02  0.7818608E-02  0.1363045E+00
          2   -1    0    0  502    0  0.00000000000E+00  0.00000000000E+00  0.13324248271E+03  0.13324248271E+03  0.00000000000E+00 0. -1.
          1   -1    0    0  501    0 -0.00000000000E+00 -0.00000000000E+00 -0.23018072990E+03  0.23018072990E+03  0.00000000000E+00 0. -1.
          2    1    1    2  501    0  0.23752523953E+02  0.39290189106E+01 -0.85756676681E+02  0.89072033653E+02  0.00000000000E+00 0. -1.
          1    1    1    2  502    0 -0.60185536299E+02  0.66950215613E+02 -0.71175911040E+02  0.11476341082E+03  0.00000000000E+00 0. -1.
         22    1    1    2    0    0  0.18800245333E+02 -0.34973671371E+02  0.97175649177E+02  0.10497482416E+03  0.00000000000E+00 0. -1.
         22    1    1    2    0    0  0.17632767014E+02 -0.35905563153E+02 -0.37181308643E+02  0.54612943982E+02  0.00000000000E+00 0. -1.
</event>
<event>
 6    1  0.4069520E-005  0.1173818E+03  0.7818608E-02  0.1356509E+00
          2   -1    0    0  502    0  0.00000000000E+00  0.00000000000E+00  0.45402674908E+02  0.45402674908E+02  0.00000000000E+00 0. -1.
          1   -1    0    0  501    0 -0.00000000000E+00 -0.00000000000E+00 -0.39483302072E+03  0.39483302072E+03  0.00000000000E+00 0.  1.
          2    1    1    2  501    0 -0.62241623992E+01  0.55270156835E+02 -0.56065776879E+02  0.78974057583E+02  0.00000000000E+00 0. -1.
          1    1    1    2  502    0 -0.36877271790E+02 -0.48407159076E+02 -0.16153114706E+03  0.17261372395E+03  0.00000000000E+00 0.  1.
         22    1    1    2    0    0  0.83230657208E+01  0.13394238787E+02  0.23435630321E+02  0.28247262243E+02  0.00000000000E+00 0. -1.
         22    1    1    2    0    0  0.34778368469E+02 -0.20257236545E+02 -0.15526905219E+03  0.16040065185E+03  0.00000000000E+00 0.  1.
</event>
<event>
 6    1  0.4069520E-005  0.8302757E+02  0.7818608E-02  0.1321348E+00
          2   -1    0    0  502    0  0.00000000000E+00  0.00000000000E+00  0.16257208891E+03  0.16257208891E+03  0.00000000000E+00 0.  1.
          1   -1    0    0  501    0 -0.00000000000E+00 -0.00000000000E+00 -0.94143021236E+03  0.94143021236E+03  0.00000000000E+00 0.  1.
          2    1    1    2  501    0  0.14217946891E+02 -0.20425894416E+02  0.19822769996E+01  0.24965908728E+02  0.00000000000E+00 0.  1.
          1    1    1    2  502    0  0.40129629412E+02 -0.12003995991E+02 -0.89547622498E+03  0.89645532659E+03  0.00000000000E+00 0.  1.
         22    1    1    2    0    0 -0.84945877517E+02  0.51609140988E+02  0.10627842279E+03  0.14551429033E+03  0.00000000000E+00 0.  1.
         22    1    1    2    0    0  0.30598301215E+02 -0.19179250581E+02  0.83574017418E+01  0.37066775608E+02  0.00000000000E+00 0.  1.
</event>
<event>
 6    1  0.4069520E-005  0.2083351E+03  0.7818608E-02  0.1257376E+00
          2   -1    0    0  502    0  0.00000000000E+00  0.00000000000E+00  0.25945202601E+03  0.25945202601E+03  0.00000000000E+00 0.  1.
          1   -1    0    0  501    0 -0.00000000000E+00 -0.00000000000E+00 -0.64938863160E+03  0.64938863160E+03  0.00000000000E+00 0.  1.
          2    1    1    2  501    0 -0.52604119906E+02 -0.53722739923E+01 -0.15046353910E+02  0.54976790784E+02  0.00000000000E+00 0.  1.
          1    1    1    2  502    0  0.95420531220E+02 -0.71414555192E+02 -0.58244464019E+03  0.59451398247E+03  0.00000000000E+00 0.  1.
         22    1    1    2    0    0 -0.48404137784E+01  0.16548844540E+02 -0.16734712996E+02  0.24027993679E+02  0.00000000000E+00 0.  1.
         22    1    1    2    0    0 -0.37975997535E+02  0.60237984644E+02  0.22428910150E+03  0.23532189068E+03  0.00000000000E+00 0.  1.
</event>
<event>
 6    1  0.4069520E-005  0.1867983E+03  0.7818608E-02  0.1225326E+00
          2   -1    0    0  502    0  0.00000000000E+00  0.00000000000E+00  0.41357393341E+03  0.41357393341E+03  0.00000000000E+00 0.  1.
          1   -1    0    0  501    0 -0.00000000000E+00 -0.00000000000E+00 -0.51653372372E+03  0.51653372372E+03  0.00000000000E+00 0.  1.
          2    1    1    2  501    0  0.20741693944E+02  0.88338109137E+02  0.76727423038E+02  0.11883154817E+03  0.00000000000E+00 0.  1.
          1    1    1    2  502    0 -0.57603490601E+02 -0.17219938669E+03 -0.45846066669E+03  0.49310949475E+03  0.00000000000E+00 0.  1.
         22    1    1    2    0    0 -0.19786943172E+02  0.41305221755E+02  0.22393634279E+03  0.22857193634E+03  0.00000000000E+00 0.  1.
         22    1    1    2    0    0  0.56648739829E+02  0.42556055801E+02  0.54837110555E+02  0.89594677876E+02  0.00000000000E+00 0.  1.
</event>
<event>
 6    1  0.4069520E-005  0.1512654E+03  0.7818608E-02  0.1272914E+00
          2   -1    0    0  502    0  0.00000000000E+00  0.00000000000E+00  0.12336135339E+03  0.12336135339E+03  0.00000000000E+00 0. -1.
          1   -1    0    0  501    0 -0.00000000000E+00 -0.00000000000E+00 -0.17605986988E+03  0.17605986988E+03  0.00000000000E+00 0. -1.
          2    1    1    2  501    0 -0.68499343400E+02 -0.31417815444E+02 -0.82628923440E+02  0.11183370763E+03  0.00000000000E+00 0. -1.
          1    1    1    2  502    0 -0.15465873001E+02  0.27195889166E+02 -0.33962705160E+01  0.31469735757E+02  0.00000000000E+00 0. -1.
         22    1    1    2    0    0  0.11283401414E+02  0.30768994510E+02  0.64774434421E+02  0.72593205778E+02  0.00000000000E+00 0. -1.
         22    1    1    2    0    0  0.72681814988E+02 -0.26547068231E+02 -0.31447756960E+02  0.83524574105E+02  0.00000000000E+00 0. -1.
</event>
<event>
 6    1  0.4069520E-005  0.2731482E+03  0.7818608E-02  0.1162146E+00
          2   -1    0    0  502    0  0.00000000000E+00  0.00000000000E+00  0.10734514876E+03  0.10734514876E+03  0.00000000000E+00 0. -1.
          1   -1    0    0  501    0 -0.00000000000E+00 -0.00000000000E+00 -0.11534538948E+04  0.11534538948E+04  0.00000000000E+00 0. -1.
          2    1    1    2  501    0 -0.10561661507E+03  0.10789558407E+03 -0.48344523048E+03  0.50647370842E+03  0.00000000000E+00 0. -1.
          1    1    1    2  502    0  0.24110464005E+03 -0.14669846830E+03 -0.45877669260E+03  0.53863525853E+03  0.00000000000E+00 0. -1.
         22    1    1    2    0    0 -0.58106773212E+02 -0.82794886496E+01  0.20189178017E+02  0.62068912786E+02  0.00000000000E+00 0. -1.
         22    1    1    2    0    0 -0.77381251766E+02  0.47082372876E+02 -0.12407600094E+03  0.15362116381E+03  0.00000000000E+00 0. -1.
</event>
<event>
 6    1  0.4069520E-005  0.1099034E+03  0.7818608E-02  0.1296038E+00
          2   -1    0    0  502    0  0.00000000000E+00  0.00000000000E+00  0.42610697040E+02  0.42610697040E+02  0.00000000000E+00 0. -1.
          1   -1    0    0  501    0 -0.00000000000E+00 -0.00000000000E+00 -0.66332702220E+03  0.66332702220E+03  0.00000000000E+00 0. -1.
          2    1    1    2  501    0 -0.31364660613E+02 -0.76572818684E+02 -0.22266830660E+03  0.23754644443E+03  0.00000000000E+00 0. -1.
          1    1    1    2  502    0  0.71655065590E+02  0.74915214736E+02 -0.26012173670E+03  0.28001795608E+03  0.00000000000E+00 0. -1.
         22    1    1    2    0    0 -0.41725925559E+02  0.37417111744E+02 -0.11808381000E+02  0.57275919694E+02  0.00000000000E+00 0. -1.
         22    1    1    2    0    0  0.14355205820E+01 -0.35759507795E+02 -0.12611790086E+03  0.13109739903E+03  0.00000000000E+00 0. -1.
</event>
<event>
 6    1  0.4069520E-005  0.1842000E+03  0.7818608E-02  0.1251364E+00
          2   -1    0    0  502    0  0.00000000000E+00  0.00000000000E+00  0.56224998525E+03  0.56224998525E+03  0.00000000000E+00 0.  1.
          1   -1    0    0  501    0 -0.00000000000E+00 -0.00000000000E+00 -0.12939925622E+03  0.12939925622E+03  0.00000000000E+00 0. -1.
          2    1    1    2  501    0  0.12379055275E+02  0.53445347335E+02  0.15431761780E+03  0.16377903812E+03  0.00000000000E+00 0.  1.
          1    1    1    2  502    0 -0.10768858306E+03 -0.12403101675E+03 -0.37037356495E+02  0.16838138202E+03  0.00000000000E+00 0. -1.
         22    1    1    2    0    0 -0.27779740708E+02 -0.42699222626E+01  0.53279977773E+02  0.60238710655E+02  0.00000000000E+00 0.  1.
         22    1    1    2    0    0  0.12308926849E+03  0.74855591673E+02  0.26229048995E+03  0.29925011068E+03  0.00000000000E+00 0.  1.
</event>
<event>
 6    1  0.4069520E-005  0.6382151E+02  0.7818608E-02  0.1393230E+00
          2   -1    0    0  502    0  0.00000000000E+00  0.00000000000E+00  0.92945481589E+02  0.92945481589E+02  0.00000000000E+00 0.  1.
          1   -1    0    0  501    0 -0.00000000000E+00 -0.00000000000E+00 -0.41592171881E+03  0.41592171881E+03  0.00000000000E+00 0.  1.
          2    1    1    2  501    0 -0.60901034049E+02 -0.16387839875E+02 -0.27470769105E+03  0.28185424028E+03  0.00000000000E+00 0.  1.
          1    1    1    2  502    0  0.24465989103E+02 -0.10535248569E+01 -0.88638866154E+02  0.91959464605E+02  0.00000000000E+00 0.  1.
         22    1    1    2    0    0 -0.57314271448E+01 -0.14953924544E+02 -0.37490605439E+02  0.40767813438E+02  0.00000000000E+00 0. -1.
         22    1    1    2    0    0  0.42166472091E+02  0.32395289275E+02  0.77860925422E+02  0.94285682071E+02  0.00000000000E+00 0.  1.
</event>
<event>
 6    1  0.4069520E-005  0.7476195E+02  0.7818608E-02  0.1408552E+00
          2   -1    0    0  502    0  0.00000000000E+00  0.00000000000E+00  0.50150828055E+02  0.50150828055E+02  0.00000000000E+00 0.  1.
          1   -1    0    0  501    0 -0.00000000000E+00 -0.00000000000E+00 -0.54727079134E+03  0.54727079134E+03  0.00000000000E+00 0.  1.
          2    1    1    2  501    0 -0.65320572367E+02 -0.83901610636E+00 -0.29749928586E+03  0.30458710775E+03  0.00000000000E+00 0.  1.
          1    1    1    2  502    0  0.50497701582E+02  0.45553307438E+01 -0.14523699375E+03  0.15383287443E+03  0.00000000000E+00 0.  1.
         22    1    1    2    0    0 -0.63904405460E+01 -0.19079892119E+02 -0.91437394121E+02  0.93625194564E+02  0.00000000000E+00 0. -1.
         22    1    1    2    0    0  0.21213311331E+02  0.15363577482E+02  0.37053710436E+02  0.45376442652E+02  0.00000000000E+00 0.  1.
</event>
<event>
 6    1  0.4069520E-005  0.2007728E+03  0.7818608E-02  0.1207773E+00
          2   -1    0    0  502    0  0.00000000000E+00  0.00000000000E+00  0.31273509448E+03  0.31273509448E+03  0.00000000000E+00 0.  1.
          1   -1    0    0  501    0 -0.00000000000E+00 -0.00000000000E+00 -0.27999441936E+03  0.27999441936E+03  0.00000000000E+00 0. -1.
          2    1    1    2  501    0 -0.12895714616E+03  0.44378513804E+02  0.54564661527E+02  0.14689009606E+03  0.00000000000E+00 0.  1.
          1    1    1    2  502    0  0.18776271783E+03 -0.34091338797E+02 -0.16143860957E+03  0.24995896113E+03  0.00000000000E+00 0. -1.
         22    1    1    2    0    0  0.12746166961E+02 -0.51899156842E+02  0.67545128987E+02  0.86129737623E+02  0.00000000000E+00 0.  1.
         22    1    1    2    0    0 -0.71551738631E+02  0.41611981835E+02  0.72069494179E+02  0.10975071902E+03  0.00000000000E+00 0. -1.
</event>
<event>
 6    1  0.4069520E-005  0.5520635E+02  0.7818608E-02  0.1489638E+00
          2   -1    0    0  502    0  0.00000000000E+00  0.00000000000E+00  0.74153529663E+02  0.74153529663E+02  0.00000000000E+00 0.  1.
          1   -1    0    0  501    0 -0.00000000000E+00 -0.00000000000E+00 -0.48925626240E+03  0.48925626240E+03  0.00000000000E+00 0.  1.
          2    1    1    2  501    0 -0.20159807377E+02  0.26591584627E+02 -0.19320675313E+02  0.38559288129E+02  0.00000000000E+00 0.  1.
          1    1    1    2  502    0  0.26196441051E+02 -0.29692042323E+02 -0.39390152398E+03  0.39588670285E+03  0.00000000000E+00 0.  1.
         22    1    1    2    0    0  0.19299227282E+02 -0.36791127670E+01  0.59261846453E+02  0.62433664712E+02  0.00000000000E+00 0.  1.
         22    1    1    2    0    0 -0.25335860955E+02  0.67795704634E+01 -0.61142379895E+02  0.66530136369E+02  0.00000000000E+00 0.  1.
</event>
<event>
 6    1  0.4069520E-005  0.1775481E+03  0.7818608E-02  0.1252247E+00
          2   -1    0    0  502    0  0.00000000000E+00  0.00000000000E+00  0.25403344929E+03  0.25403344929E+03  0.00000000000E+00 0. -1.
          1   -1    0    0  501    0 -0.00000000000E+00 -0.00000000000E+00 -0.95762756775E+03  0.95762756775E+03  0.00000000000E+00 0. -1.
          2    1    1    2  501    0 -0.12169228099E+02  0.14379137379E+03 -0.84819171633E+03  0.86037970509E+03  0.00000000000E+00 0. -1.
          1    1    1    2  502    0  0.39100327871E+02 -0.17424374367E+03  0.34443225234E+02  0.18186823146E+03  0.00000000000E+00 0. -1.
         22    1    1    2    0    0 -0.27957047055E+02  0.13014297820E+02  0.13531425682E+03  0.13878370411E+03  0.00000000000E+00 0. -1.
         22    1    1    2    0    0  0.10259472826E+01  0.17438072059E+02 -0.25159884184E+02  0.30629376375E+02  0.00000000000E+00 0. -1.
</event>
<event>
 6    1  0.4069520E-005  0.1543143E+03  0.7818608E-02  0.1271480E+00
          2   -1    0    0  502    0  0.00000000000E+00  0.00000000000E+00  0.16182377734E+03  0.16182377734E+03  0.00000000000E+00 0.  1.
          1   -1    0    0  501    0 -0.00000000000E+00 -0.00000000000E+00 -0.33988928455E+03  0.33988928455E+03  0.00000000000E+00 0.  1.
          2    1    1    2  501    0 -0.95348921640E+01  0.69698237150E+02 -0.14350405676E+03  0.15981918764E+03  0.00000000000E+00 0.  1.
          1    1    1    2  502    0 -0.65274744762E+02 -0.58142575723E+02  0.10879727933E+03  0.13956431996E+03  0.00000000000E+00 0.  1.
         22    1    1    2    0    0 -0.94662322013E+01 -0.30798323681E+02  0.29882522595E+01  0.32358552891E+02  0.00000000000E+00 0.  1.
         22    1    1    2    0    0  0.84275869127E+02  0.19242662254E+02 -0.14634698204E+03  0.16997100141E+03  0.00000000000E+00 0.  1.
</event>
<event>
 6    1  0.4069520E-005  0.6121656E+02  0.7818608E-02  0.1394385E+00
          2   -1    0    0  502    0  0.00000000000E+00  0.00000000000E+00  0.13427339314E+03  0.13427339314E+03  0.00000000000E+00 0. -1.
          1   -1    0    0  501    0 -0.00000000000E+00 -0.00000000000E+00 -0.90327317196E+02  0.90327317196E+02  0.00000000000E+00 0. -1.
          2    1    1    2  501    0  0.11318310381E+02 -0.23363608751E+02  0.38162433019E+02  0.46155537671E+02  0.00000000000E+00 0. -1.
          1    1    1    2  502    0 -0.27296822457E+02 -0.15946490132E+02 -0.25951148743E+02  0.40900723525E+02  0.00000000000E+00 0. -1.
         22    1    1    2    0    0  0.27892835258E+02 -0.22534210030E+02  0.58898114615E+02  0.68954976511E+02  0.00000000000E+00 0. -1.
         22    1    1    2    0    0 -0.11914323182E+02  0.61844308913E+02 -0.27163322948E+02  0.68589472628E+02  0.00000000000E+00 0.  1.
</event>
<event>
 6    1  0.4069520E-005  0.9391400E+02  0.7818608E-02  0.1313196E+00
          2   -1    0    0  502    0  0.00000000000E+00  0.00000000000E+00  0.57531659945E+02  0.57531659945E+02  0.00000000000E+00 0.  1.
          1   -1    0    0  501    0 -0.00000000000E+00 -0.00000000000E+00 -0.42598764620E+03  0.42598764620E+03  0.00000000000E+00 0.  1.
          2    1    1    2  501    0 -0.11891541094E+02  0.37506629173E+02 -0.10000577221E+03  0.10746771820E+03  0.00000000000E+00 0.  1.
          1    1    1    2  502    0 -0.32592970472E+02 -0.10111398281E+03 -0.65047227548E+02  0.12456918180E+03  0.00000000000E+00 0.  1.
         22    1    1    2    0    0 -0.33994479873E+01  0.65525653826E+02 -0.31047488852E+02  0.72588663853E+02  0.00000000000E+00 0.  1.
         22    1    1    2    0    0  0.47883959553E+02 -0.19183001898E+01 -0.17235549765E+03  0.17889374229E+03  0.00000000000E+00 0.  1.
</event>
<event>
 6    1  0.4069520E-005  0.1638618E+03  0.7818608E-02  0.1230042E+00
          2   -1    0    0  502    0  0.00000000000E+00  0.00000000000E+00  0.97674614732E+02  0.97674614732E+02  0.00000000000E+00 0. -1.
          1   -1    0    0  501    0 -0.00000000000E+00 -0.00000000000E+00 -0.77094225280E+03  0.77094225280E+03  0.00000000000E+00 0. -1.
          2    1    1    2  501    0  0.11033831010E+03 -0.10927450902E+03 -0.52601648184E+03  0.54846039070E+03  0.00000000000E+00 0. -1.
          1    1    1    2  502    0 -0.64395086708E+02  0.13508885321E+03 -0.10037798164E+03  0.18019840357E+03  0.00000000000E+00 0. -1.
         22    1    1    2    0    0  0.11997055734E+02 -0.50985029213E+01 -0.72236638656E+02  0.73403378959E+02  0.00000000000E+00 0.  1.
         22    1    1    2    0    0 -0.57940279122E+02 -0.20715841265E+02  0.25363464068E+02  0.66554694302E+02  0.00000000000E+00 0. -1.
</event>
<event>
 6    1  0.4069520E-005  0.9397206E+02  0.7818608E-02  0.1349858E+00
          2   -1    0    0  502    0  0.00000000000E+00  0.00000000000E+00  0.20338366105E+03  0.20338366105E+03  0.00000000000E+00 0. -1.
          1   -1    0    0  501    0 -0.00000000000E+00 -0.00000000000E+00 -0.39057447579E+03  0.39057447579E+03  0.00000000000E+00 0.  1.
          2    1    1    2  501    0  0.98685329737E+01 -0.38195000030E+02 -0.68382920488E+02  0.78945992835E+02  0.00000000000E+00 0. -1.
          1    1    1    2  502    0 -0.38865261827E+02 -0.11688524081E+02 -0.29079870185E+03  0.29361712343E+03  0.00000000000E+00 0.  1.
         22    1    1    2    0    0 -0.11273868776E+02  0.32509447216E+02  0.17411751817E+03  0.17748485684E+03  0.00000000000E+00 0. -1.
         22    1    1    2    0    0  0.40270597630E+02  0.17374076895E+02 -0.21267105657E+01  0.43910163735E+02  0.00000000000E+00 0. -1.
</event>
<event>
 6    1  0.4069520E-005  0.9603556E+02  0.7818608E-02  0.1320235E+00
          2   -1    0    0  502    0  0.00000000000E+00  0.00000000000E+00  0.18314477115E+03  0.18314477115E+03  0.00000000000E+00 0. -1.
          1   -1    0    0  501    0 -0.00000000000E+00 -0.00000000000E+00 -0.23603308017E+03  0.23603308017E+03  0.00000000000E+00 0. -1.
          2    1    1    2  501    0  0.71731227119E+01 -0.59944351238E+02  0.97978750082E+01  0.61161894097E+02  0.00000000000E+00 0. -1.
          1    1    1    2  502    0  0.73930374375E+01  0.57660153564E+02 -0.18015746475E+03  0.18930415320E+03  0.00000000000E+00 0. -1.
         22    1    1    2    0    0 -0.93371405711E+01 -0.51536070276E+02  0.98222939697E+02  0.11131439537E+03  0.00000000000E+00 0. -1.
         22    1    1    2    0    0 -0.52290195783E+01  0.53820267951E+02  0.19248341026E+02  0.57397408655E+02  0.00000000000E+00 0. -1.
</event>
<event>
 6    1  0.4069520E-005  0.9955325E+02  0.7818608E-02  0.1377481E+00
          2   -1    0    0  502    0  0.00000000000E+00  0.00000000000E+00  0.35584881269E+02  0.35584881269E+02  0.00000000000E+00 0. -1.
          1   -1    0    0  501    0 -0.00000000000E+00 -0.00000000000E+00 -0.26828483273E+03  0.26828483273E+03  0.00000000000E+00 0. -1.
          2    1    1    2  501    0 -0.17182916354E+02 -0.37168811099E+02 -0.32783801059E+02  0.52455226096E+02  0.00000000000E+00 0. -1.
          1    1    1    2  502    0  0.21771080604E+02  0.18075950590E+02 -0.52194260577E+02  0.59371380121E+02  0.00000000000E+00 0. -1.
         22    1    1    2    0    0 -0.14841196135E+02 -0.10599661568E+02  0.16650983367E+02  0.24695529456E+02  0.00000000000E+00 0. -1.
         22    1    1    2    0    0  0.10253031885E+02  0.29692522077E+02 -0.16437287319E+03  0.16734757833E+03  0.00000000000E+00 0. -1.
</event>
<event>
 6    1  0.4069520E-005  0.1174447E+03  0.7818608E-02  0.1257471E+00
          2   -1    0    0  502    0  0.00000000000E+00  0.00000000000E+00  0.40905150152E+03  0.40905150152E+03  0.00000000000E+00 0.  1.
          1   -1    0    0  501    0 -0.00000000000E+00 -0.00000000000E+00 -0.15301604820E+03  0.15301604820E+03  0.00000000000E+00 0. -1.
          2    1    1    2  501    0 -0.35772286341E+02  0.90298505864E+02  0.63060849125E+02  0.11580219050E+03  0.00000000000E+00 0.  1.
          1    1    1    2  502    0 -0.28506720178E+02 -0.36491121010E+02 -0.10301816716E+03  0.11294679177E+03  0.00000000000E+00 0. -1.
         22    1    1    2    0    0  0.84110934149E+02 -0.48074314179E+02  0.29724705365E+03  0.31263652991E+03  0.00000000000E+00 0.  1.
         22    1    1    2    0    0 -0.19831927631E+02 -0.57330706750E+01 -0.12542823091E+01  0.20682037545E+02  0.00000000000E+00 0. -1.
</event>
<event>
 6    1  0.4069520E-005  0.1193410E+03  0.7818608E-02  0.1245109E+00
          2   -1    0    0  502    0  0.00000000000E+00  0.00000000000E+00  0.16120264165E+03  0.16120264165E+03  0.00000000000E+00 0.  1.
          1   -1    0    0  501    0 -0.00000000000E+00 -0.00000000000E+00 -0.67796527981E+03  0.67796527981E+03  0.00000000000E+00 0.  1.
          2    1    1    2  501    0  0.70372230058E+02  0.15101682422E+02  0.69471093870E+01  0.72308878460E+02  0.00000000000E+00 0.  1.
          1    1    1    2  502    0  0.11547620140E+02  0.71048576708E+02 -0.57952799817E+03  0.58398111994E+03  0.00000000000E+00 0.  1.
         22    1    1    2    0    0 -0.11546139025E+03 -0.78026835608E+02  0.48866667214E+02  0.14767352802E+03  0.00000000000E+00 0.  1.
         22    1    1    2    0    0  0.33541540052E+02 -0.81234235229E+01  0.69515834090E+01  0.35204395048E+02  0.00000000000E+00 0.  1.
</event>
<event>
 6    1  0.4069520E-005  0.1122066E+03  0.7818608E-02  0.1257348E+00
          2   -1    0    0  502    0  0.00000000000E+00  0.00000000000E+00  0.78044840846E+02  0.78044840846E+02  0.00000000000E+00 0.  1.
          1   -1    0    0  501    0 -0.00000000000E+00 -0.00000000000E+00 -0.35931837637E+04  0.35931837637E+04  0.00000000000E+00 0. -1.
          2    1    1    2  501    0 -0.43723191750E+02 -0.56608531116E+02 -0.25534939716E+02  0.75949170096E+02  0.00000000000E+00 0.  1.
          1    1    1    2  502    0  0.22469672927E+02 -0.68798921264E+02 -0.33881665805E+04  0.33889395030E+04  0.00000000000E+00 0. -1.
         22    1    1    2    0    0 -0.20497518580E+02 -0.16506404597E+02  0.11145309412E+01  0.26341067554E+02  0.00000000000E+00 0. -1.
         22    1    1    2    0    0  0.41751037403E+02  0.14191385698E+03 -0.10255193359E+03  0.17999886391E+03  0.00000000000E+00 0.  1.
</event>
<event>
 6    1  0.4069520E-005  0.8477613E+02  0.7818608E-02  0.1317206E+00
          2   -1    0    0  502    0  0.00000000000E+00  0.00000000000E+00  0.44750164383E+03  0.44750164383E+03  0.00000000000E+00 0.  1.
          1   -1    0    0  501    0 -0.00000000000E+00 -0.00000000000E+00 -0.36885513628E+03  0.36885513628E+03  0.00000000000E+00 0.  1.
          2    1    1    2  501    0 -0.24882331154E+02  0.90602389192E+01  0.40006506315E+02  0.47976440890E+02  0.00000000000E+00 0.  1.
          1    1    1    2  502    0 -0.24537949338E+02  0.61754372538E+02 -0.34680737426E+03  0.35311622496E+03  0.00000000000E+00 0.  1.
         22    1    1    2    0    0  0.79391677551E+02 -0.70068585628E+02  0.36209900662E+03  0.37726427840E+03  0.00000000000E+00 0.  1.
         22    1    1    2    0    0 -0.29971397058E+02 -0.74602582923E+00  0.23348368876E+02  0.37999835859E+02  0.00000000000E+00 0. -1.
</event>
<event>
 6    1  0.4069520E-005  0.4621754E+02  0.7818608E-02  0.1535776E+00
          2   -1    0    0  502    0  0.00000000000E+00  0.00000000000E+00  0.11320160632E+03  0.11320160632E+03  0.00000000000E+00 0. -1.
          1   -1    0    0  501    0 -0.00000000000E+00 -0.00000000000E+00 -0.26640433267E+03  0.26640433267E+03  0.00000000000E+00 0.  1.
          2    1    1    2  501    0 -0.38261418365E+02 -0.11807528691E+02 -0.75256477549E+02  0.85246063147E+02  0.00000000000E+00 0. -1.
          1    1    1    2  502    0  0.34277769153E+02 -0.98273964513E+01 -0.14369511502E+03  0.14805346757E+03  0.00000000000E+00 0.  1.
         22    1    1    2    0    0  0.13302314324E+02  0.12057009911E+02  0.10412954094E+03  0.10566590912E+03  0.00000000000E+00 0. -1.
         22    1    1    2    0    0 -0.93186651120E+01  0.95779152310E+01 -0.38380674716E+02  0.40640499152E+02  0.00000000000E+00 0. -1.
</event>
<event>
 6    1  0.4069520E-005  0.8194251E+02  0.7818608E-02  0.1337074E+00
          2   -1    0    0  502    0  0.00000000000E+00  0.00000000000E+00  0.66129425848E+02  0.66129425848E+02  0.00000000000E+00 0. -1.
          1   -1    0    0  501    0 -0.00000000000E+00 -0.00000000000E+00 -0.24831729748E+04  0.24831729748E+04  0.00000000000E+00 0. -1.
          2    1    1    2  501    0 -0.39230535050E+02  0.86558023584E+01 -0.11869212022E+02  0.41890762571E+02  0.00000000000E+00 0. -1.
          1    1    1    2  502    0  0.50651682300E+02 -0.13363051962E+02 -0.23753128044E+04  0.23758903769E+04  0.00000000000E+00 0. -1.
         22    1    1    2    0    0  0.11181638749E+02 -0.56727258913E+02  0.37414530366E+01  0.57939705036E+02  0.00000000000E+00 0. -1.
         22    1    1    2    0    0 -0.22602785999E+02  0.61434508516E+02 -0.33602985564E+02  0.73581556183E+02  0.00000000000E+00 0. -1.
</event>
<event>
 6    1  0.4069520E-005  0.6574759E+02  0.7818608E-02  0.1451034E+00
          2   -1    0    0  502    0  0.00000000000E+00  0.00000000000E+00  0.61929874256E+02  0.61929874256E+02  0.00000000000E+00 0.  1.
          1   -1    0    0  501    0 -0.00000000000E+00 -0.00000000000E+00 -0.75244961850E+03  0.75244961850E+03  0.00000000000E+00 0. -1.
          2    1    1    2  501    0 -0.32600572570E+02  0.37589227175E+02 -0.17736816640E+03  0.18421512909E+03  0.00000000000E+00 0.  1.
          1    1    1    2  502    0  0.86688817447E+00 -0.29554745200E+02 -0.50007315132E+03  0.50094649527E+03  0.00000000000E+00 0. -1.
         22    1    1    2    0    0  0.23203877625E+02  0.10295265709E+02 -0.66990883411E+02  0.71639311087E+02  0.00000000000E+00 0.  1.
         22    1    1    2    0    0  0.85298067703E+01 -0.18329747684E+02  0.53912456889E+02  0.57578557306E+02  0.00000000000E+00 0.  1.
</event>
<event>
 6    1  0.4069520E-005  0.1618634E+03  0.7818608E-02  0.1189227E+00
          2   -1    0    0  502    0  0.00000000000E+00  0.00000000000E+00  0.22363402781E+03  0.22363402781E+03  0.00000000000E+00 0.  1.
          1   -1    0    0  501    0 -0.00000000000E+00 -0.00000000000E+00 -0.91312996631E+03  0.91312996631E+03  0.00000000000E+00 0.  1.
          2    1    1    2  501    0  0.50507997786E+02  0.19519307476E+03 -0.28966111398E+03  0.35292344103E+03  0.00000000000E+00 0.  1.
          1    1    1    2  502    0  0.33618839874E+02 -0.95358338444E+02 -0.54413842746E+03  0.55345285919E+03  0.00000000000E+00 0.  1.
         22    1    1    2    0    0  0.10302942585E+02  0.14422920076E+02 -0.65499207933E+01  0.18896367689E+02  0.00000000000E+00 0. -1.
         22    1    1    2    0    0 -0.94429780245E+02 -0.11425765640E+03  0.15085352373E+03  0.21149132621E+03  0.00000000000E+00 0.  1.
</event>
<event>
 6    1  0.4069520E-005  0.8786570E+02  0.7818608E-02  0.1360439E+00
          2   -1    0    0  502    0  0.00000000000E+00  0.00000000000E+00  0.91943458645E+02  0.91943458645E+02  0.00000000000E+00 0. -1.
          1   -1    0    0  501    0 -0.00000000000E+00 -0.00000000000E+00 -0.17858537165E+03  0.17858537165E+03  0.00000000000E+00 0. -1.
          2    1    1    2  501    0 -0.12524179256E+02 -0.46018669269E+02 -0.16799087984E+02  0.50564635313E+02  0.00000000000E+00 0. -1.
          1    1    1    2  502    0 -0.32031343160E+02  0.43608099569E+02 -0.72542439733E+02  0.90499054443E+02  0.00000000000E+00 0. -1.
         22    1    1    2    0    0 -0.29320504312E+01  0.35066921931E+02  0.45613981633E+02  0.57610079447E+02  0.00000000000E+00 0. -1.
         22    1    1    2    0    0  0.47487572847E+02 -0.32656352232E+02 -0.42914366917E+02  0.71855061087E+02  0.00000000000E+00 0. -1.
</event>
<event>
 6    1  0.4069520E-005  0.1603228E+03  0.7818608E-02  0.1319324E+00
          2   -1    0    0  502    0  0.00000000000E+00  0.00000000000E+00  0.32857862688E+02  0.32857862688E+02  0.00000000000E+00 0.  1.
          1   -1    0    0  501    0 -0.00000000000E+00 -0.00000000000E+00 -0.14039563855E+04  0.14039563855E+04  0.00000000000E+00 0.  1.
          2    1    1    2  501    0 -0.59936881433E+02 -0.23884648376E+02 -0.62045090647E+02  0.89512565919E+02  0.00000000000E+00 0.  1.
          1    1    1    2  502    0 -0.89857602742E+01  0.51343535143E+02 -0.10558197859E+04  0.10571056346E+04  0.00000000000E+00 0.  1.
         22    1    1    2    0    0  0.64759921271E+02 -0.16403401038E+02 -0.26513820867E+03  0.27342492327E+03  0.00000000000E+00 0. -1.
         22    1    1    2    0    0  0.41627204356E+01 -0.11055485729E+02  0.11904562407E+02  0.16771124358E+02  0.00000000000E+00 0.  1.
</event>
<event>
 6    1  0.4069520E-005  0.2738751E+03  0.7818608E-02  0.1099702E+00
          2   -1    0    0  502    0  0.00000000000E+00  0.00000000000E+00  0.25364000592E+04  0.25364000592E+04  0.00000000000E+00 0. -1.
          1   -1    0    0  501    0 -0.00000000000E+00 -0.00000000000E+00 -0.63786687830E+02  0.63786687830E+02  0.00000000000E+00 0.  1.
          2    1    1    2  501    0  0.27828825617E+03 -0.18545009837E+03  0.81530379071E+03  0.88122435489E+03  0.00000000000E+00 0. -1.
          1    1    1    2  502    0 -0.95893998937E+02  0.47395139494E+02  0.12523738386E+03  0.16470082148E+03  0.00000000000E+00 0.  1.
         22    1    1    2    0    0 -0.19487130009E+03  0.14854542914E+03  0.14544885368E+04  0.14749838887E+04  0.00000000000E+00 0. -1.
         22    1    1    2    0    0  0.12477042858E+02 -0.10490470270E+02  0.77583660030E+02  0.79277682033E+02  0.00000000000E+00 0. -1.
</event>
<event>
 6    1  0.4069520E-005  0.8304341E+02  0.7818608E-02  0.1322675E+00
          2   -1    0    0  502    0  0.00000000000E+00  0.00000000000E+00  0.96805311190E+02  0.96805311190E+02  0.00000000000E+00 0.  1.
          1   -1    0    0  501    0 -0.00000000000E+00 -0.00000000000E+00 -0.11671218295E+04  0.11671218295E+04  0.00000000000E+00 0.  1.
          2    1    1    2  501    0 -0.59654647792E+02  0.18790049537E+02 -0.15101777029E+03  0.16345675241E+03  0.00000000000E+00 0.  1.
          1    1    1    2  502    0  0.34933871778E+02 -0.75509813657E+02 -0.94988655725E+03  0.95352324512E+03  0.00000000000E+00 0.  1.
         22    1    1    2    0    0 -0.19966861723E+02 -0.97216489629E+01 -0.36339824455E+02  0.42588365396E+02  0.00000000000E+00 0. -1.
         22    1    1    2    0    0  0.44687637737E+02  0.66441413083E+02  0.66927633700E+02  0.10435877774E+03  0.00000000000E+00 0.  1.
</event>
<event>
 6    1  0.4069520E-005  0.1011772E+03  0.7818608E-02  0.1394977E+00
          2   -1    0    0  502    0  0.00000000000E+00  0.00000000000E+00  0.76598060816E+02  0.76598060816E+02  0.00000000000E+00 0. -1.
          1   -1    0    0  501    0 -0.00000000000E+00 -0.00000000000E+00 -0.29444271555E+04  0.29444271555E+04  0.00000000000E+00 0.  1.
          2    1    1    2  501    0  0.23046880679E+02  0.81506306463E+01  0.72491231215E+00  0.24456430378E+02  0.00000000000E+00 0. -1.
          1    1    1    2  502    0 -0.76325416576E+02  0.41250610539E+02 -0.28531185293E+04  0.28544373394E+04  0.00000000000E+00 0.  1.
         22    1    1    2    0    0  0.51744052603E+02 -0.36396828637E+02 -0.65096543567E+02  0.90772992123E+02  0.00000000000E+00 0. -1.
         22    1    1    2    0    0  0.15344832943E+01 -0.13004412549E+02  0.49661065852E+02  0.51358454477E+02  0.00000000000E+00 0. -1.
</event>
<event>
 6    1  0.4069520E-005  0.2271783E+03  0.7818608E-02  0.1129621E+00
          2   -1    0    0  502    0  0.00000000000E+00  0.00000000000E+00  0.74910809687E+03  0.74910809687E+03  0.00000000000E+00 0. -1.
          1   -1    0    0  501    0 -0.00000000000E+00 -0.00000000000E+00 -0.13456251862E+03  0.13456251862E+03  0.00000000000E+00 0. -1.
          2    1    1    2  501    0  0.25773138866E+03 -0.10436331576E+03  0.21085422433E+03  0.34896514768E+03  0.00000000000E+00 0. -1.
          1    1    1    2  502    0 -0.10977484647E+03  0.69649732433E+02  0.25907925085E+03  0.28986835006E+03  0.00000000000E+00 0. -1.
         22    1    1    2    0    0 -0.16602131656E+03  0.44501709013E+02  0.10842103229E+03  0.20322056958E+03  0.00000000000E+00 0. -1.
         22    1    1    2    0    0  0.18064774376E+02 -0.97881256819E+01  0.36191070777E+02  0.41616548170E+02  0.00000000000E+00 0.  1.
</event>
<event>
 6    1  0.4069520E-005  0.8376517E+02  0.7818608E-02  0.1320613E+00
          2   -1    0    0  502    0  0.00000000000E+00  0.00000000000E+00  0.45751558308E+03  0.45751558308E+03  0.00000000000E+00 0. -1.
          1   -1    0    0  501    0 -0.00000000000E+00 -0.00000000000E+00 -0.78698065222E+03  0.78698065222E+03  0.00000000000E+00 0.  1.
          2    1    1    2  501    0 -0.33753410801E+02 -0.14559316506E+02  0.40608889750E+02  0.54775435777E+02  0.00000000000E+00 0. -1.
          1    1    1    2  502    0  0.46170702237E+02 -0.61524928936E+02 -0.76429484253E+03  0.76815601081E+03  0.00000000000E+00 0.  1.
         22    1    1    2    0    0 -0.14356581583E+02 -0.21718799567E+02  0.15250577062E+02  0.30172798844E+02  0.00000000000E+00 0. -1.
         22    1    1    2    0    0  0.19392901472E+01  0.97803045009E+02  0.37897030658E+03  0.39139198986E+03  0.00000000000E+00 0. -1.
</event>
<event>
 6    1  0.4069520E-005  0.1122149E+03  0.7818608E-02  0.1338074E+00
          2   -1    0    0  502    0  0.00000000000E+00  0.00000000000E+00  0.84930050674E+02  0.84930050674E+02  0.00000000000E+00 0. -1.
          1   -1    0    0  501    0 -0.00000000000E+00 -0.00000000000E+00 -0.60760224052E+03  0.60760224052E+03  0.00000000000E+00 0. -1.
          2    1    1    2  501    0  0.29400832126E+02  0.31961843059E+02 -0.41344859426E+03  0.41572311511E+03  0.00000000000E+00 0. -1.
          1    1    1    2  502    0  0.38033816049E+00 -0.23427893567E+02  0.59781917511E+02  0.64209722904E+02  0.00000000000E+00 0. -1.
         22    1    1    2    0    0 -0.47376525833E+02 -0.26280207860E+02 -0.17798244318E+03  0.18604551757E+03  0.00000000000E+00 0. -1.
         22    1    1    2    0    0  0.17595355546E+02  0.17746258368E+02  0.89769300856E+01  0.26553935615E+02  0.00000000000E+00 0.  1.
</event>
<event>
 6    1  0.4069520E-005  0.5912779E+02  0.7818608E-02  0.1442427E+00
          2   -1    0    0  502    0  0.00000000000E+00  0.00000000000E+00  0.47020727599E+02  0.47020727599E+02  0.00000000000E+00 0.  1.
          1   -1    0    0  501    0 -0.00000000000E+00 -0.00000000000E+00 -0.21450868259E+04  0.21450868259E+04  0.00000000000E+00 0. -1.
          2    1    1    2  501    0 -0.38828134006E+02 -0.25270459928E+02 -0.83200386052E+02  0.95228800132E+02  0.00000000000E+00 0.  1.
          1    1    1    2  502    0  0.41951244856E+02  0.35523954386E+02 -0.19539167872E+04  0.19546899165E+04  0.00000000000E+00 0. -1.
         22    1    1    2    0    0  0.20298343028E+02  0.24183721450E+02  0.29123525449E+02  0.42954101637E+02  0.00000000000E+00 0.  1.
         22    1    1    2    0    0 -0.23421453878E+02 -0.34437215909E+02 -0.90072450469E+02  0.99234735223E+02  0.00000000000E+00 0. -1.
</event>
<event>
 6    1  0.4069520E-005  0.5306968E+02  0.7818608E-02  0.1505792E+00
          2   -1    0    0  502    0  0.00000000000E+00  0.00000000000E+00  0.10300321971E+03  0.10300321971E+03  0.00000000000E+00 0. -1.
          1   -1    0    0  501    0 -0.00000000000E+00 -0.00000000000E+00 -0.17901142580E+03  0.17901142580E+03  0.00000000000E+00 0. -1.
          2    1    1    2  501    0  0.33637156960E+01 -0.19807209996E+02 -0.84865487398E+02  0.87211186796E+02  0.00000000000E+00 0. -1.
          1    1    1    2  502    0 -0.45536335361E+02  0.38330901822E+02  0.21087282073E+02  0.63146570278E+02  0.00000000000E+00 0. -1.
         22    1    1    2    0    0  0.24538324439E+02 -0.16986633049E+02 -0.67402631122E+02  0.73714243880E+02  0.00000000000E+00 0.  1.
         22    1    1    2    0    0  0.17634295226E+02 -0.15370587771E+01  0.55172630361E+02  0.57942644561E+02  0.00000000000E+00 0. -1.
</event>
<event>
 6    1  0.4069520E-005  0.9375222E+02  0.7818608E-02  0.1338131E+00
          2   -1    0    0  502    0  0.00000000000E+00  0.00000000000E+00  0.33076427306E+03  0.33076427306E+03  0.00000000000E+00 0. -1.
          1   -1    0    0  501    0 -0.00000000000E+00 -0.00000000000E+00 -0.52672447998E+02  0.52672447998E+02  0.00000000000E+00 0.  1.
          2    1    1    2  501    0  0.57172221054E+02  0.15876317934E+02  0.81806701239E+02  0.10105966900E+03  0.00000000000E+00 0. -1.
          1    1    1    2  502    0 -0.27513191730E+02 -0.12313606785E+02 -0.17236082699E+02  0.34722948867E+02  0.00000000000E+00 0.  1.
         22    1    1    2    0    0 -0.14696366118E+02  0.34351210754E+02  0.81034934463E+01  0.38231602940E+02  0.00000000000E+00 0.  1.
         22    1    1    2    0    0 -0.14962663206E+02 -0.37913921903E+02  0.20541771307E+03  0.20942250025E+03  0.00000000000E+00 0. -1.
</event>
<event>
 6    1  0.4069520E-005  0.8204070E+02  0.7818608E-02  0.1369340E+00
          2   -1    0    0  502    0  0.00000000000E+00  0.00000000000E+00  0.34035903626E+03  0.34035903626E+03  0.00000000000E+00 0.  1.
          1   -1    0    0  501    0 -0.00000000000E+00 -0.00000000000E+00 -0.64457133700E+02  0.64457133700E+02  0.00000000000E+00 0.  1.
          2    1    1    2  501    0  0.12761759437E+02  0.51245248096E+02 -0.14305503731E+02  0.54713667336E+02  0.00000000000E+00 0.  1.
          1    1    1    2  502    0 -0.19870876540E+02 -0.50608195549E+02  0.16810408679E+03  0.17667774389E+03  0.00000000000E+00 0.  1.
         22    1    1    2    0    0 -0.82006177173E+01  0.33336686705E+02 -0.10328122609E+02  0.35850452271E+02  0.00000000000E+00 0.  1.
         22    1    1    2    0    0  0.15309734821E+02 -0.33973739252E+02  0.13243144211E+03  0.13757430646E+03  0.00000000000E+00 0.  1.
</event>
<event>
 6    1  0.4069520E-005  0.1924907E+03  0.7818608E-02  0.1176415E+00
          2   -1    0    0  502    0  0.00000000000E+00  0.00000000000E+00  0.48224417780E+03  0.48224417780E+03  0.00000000000E+00 0.  1.
          1   -1    0    0  501    0 -0.00000000000E+00 -0.00000000000E+00 -0.88622601831E+03  0.88622601831E+03  0.00000000000E+00 0. -1.
          2    1    1    2  501    0  0.83149276233E+02 -0.75442684630E+01  0.81868374865E+02  0.11693224075E+03  0.00000000000E+00 0.  1.
          1    1    1    2  502    0 -0.11311359282E+03  0.13032503545E+03 -0.83846420080E+03  0.85603826770E+03  0.00000000000E+00 0. -1.
         22    1    1    2    0    0 -0.46634639931E+01 -0.12086548394E+03  0.16431388381E+03  0.20403251093E+03  0.00000000000E+00 0.  1.
         22    1    1    2    0    0  0.34627780576E+02 -0.19152830527E+01  0.18830010161E+03  0.19146717672E+03  0.00000000000E+00 0.  1.
</event>
<event>
 6    1  0.4069520E-005  0.1192714E+03  0.7818608E-02  0.1329815E+00
          2   -1    0    0  502    0  0.00000000000E+00  0.00000000000E+00  0.99330202506E+02  0.99330202506E+02  0.00000000000E+00 0. -1.
          1   -1    0    0  501    0 -0.00000000000E+00 -0.00000000000E+00 -0.76075025197E+03  0.76075025197E+03  0.00000000000E+00 0. -1.
          2    1    1    2  501    0  0.89977295111E+02 -0.45682551380E+01 -0.14373758796E+03  0.16963866535E+03  0.00000000000E+00 0. -1.
          1    1    1    2  502    0 -0.11352176885E+03  0.14183964988E+01 -0.54613978816E+03  0.55781526697E+03  0.00000000000E+00 0. -1.
         22    1    1    2    0    0 -0.21083724419E+01  0.23724864395E+02  0.73269081085E+02  0.77043316829E+02  0.00000000000E+00 0. -1.
         22    1    1    2    0    0  0.25652846181E+02 -0.20575005756E+02 -0.44811754426E+02  0.55583205321E+02  0.00000000000E+00 0. -1.
</event>
<event>
 6    1  0.4069520E-005  0.1059015E+03  0.7818608E-02  0.1272564E+00
          2   -1    0    0  502    0  0.00000000000E+00  0.00000000000E+00  0.21436590037E+03  0.21436590037E+03  0.00000000000E+00 0.  1.
          1   -1    0    0  501    0 -0.00000000000E+00 -0.00000000000E+00 -0.17258166376E+03  0.17258166376E+03  0.00000000000E+00 0.  1.
          2    1    1    2  501    0  0.12630846456E+03  0.91975596784E+01 -0.48774822495E+02  0.13571074620E+03  0.00000000000E+00 0.  1.
          1    1    1    2  502    0 -0.62132176122E+02  0.31285915625E+02 -0.18522496217E+02  0.71988184393E+02  0.00000000000E+00 0.  1.
         22    1    1    2    0    0 -0.76077150809E+02 -0.54119499954E+02  0.12439965410E+03  0.15553754239E+03  0.00000000000E+00 0.  1.
         22    1    1    2    0    0  0.11900862368E+02  0.13636024651E+02 -0.15318098780E+02  0.23711091152E+02  0.00000000000E+00 0.  1.
</event>
<event>
 6    1  0.8238413E-005  0.2866631E+03  0.7818608E-02  0.1170728E+00
          2   -1    0    0  502    0  0.00000000000E+00  0.00000000000E+00  0.98968576281E+03  0.98968576281E+03  0.00000000000E+00 0.  1.
          1   -1    0    0  501    0 -0.00000000000E+00 -0.00000000000E+00 -0.15915122186E+04  0.15915122186E+04  0.00000000000E+00 0. -1.
          2    1    1    2  501    0  0.14989547626E+02 -0.44810498076E+02  0.28217020455E+02  0.55035148035E+02  0.00000000000E+00 0.  1.
          1    1    1    2  502    0  0.38661951528E+02  0.21083026559E+03 -0.15586688887E+04  0.15733381239E+04  0.00000000000E+00 0. -1.
         22    1    1    2    0    0  0.31576770246E+02 -0.27198791773E+02  0.99953215239E+02  0.10829363753E+03  0.00000000000E+00 0.  1.
         22    1    1    2    0    0 -0.85228269400E+02 -0.13882097574E+03  0.82867219719E+03  0.84453107202E+03  0.00000000000E+00 0.  1.
</event>
<event>
 6    1  0.4069520E-005  0.1851496E+03  0.7818608E-02  0.1240640E+00
          2   -1    0    0  502    0  0.00000000000E+00  0.00000000000E+00  0.11045775157E+03  0.11045775157E+03  0.00000000000E+00 0.  1.
          1   -1    0    0  501    0 -0.00000000000E+00 -0.00000000000E+00 -0.22543693938E+04  0.22543693938E+04  0.00000000000E+00 0. -1.
          2    1    1    2  501    0  0.78709811409E+02  0.11313430915E+03 -0.22543707532E+03  0.26422808565E+03  0.00000000000E+00 0.  1.
          1    1    1    2  502    0 -0.43705283825E+02 -0.12582383066E+03 -0.19612682879E+04  0.19657861240E+04  0.00000000000E+00 0. -1.
         22    1    1    2    0    0 -0.11045454236E+02  0.32512115609E+02  0.79563687020E+02  0.86656909781E+02  0.00000000000E+00 0.  1.
         22    1    1    2    0    0 -0.23959073348E+02 -0.19822594095E+02 -0.36769966029E+02  0.48156025938E+02  0.00000000000E+00 0.  1.
</event>
<event>
 6    1  0.4069520E-005  0.1926227E+03  0.7818608E-02  0.1202995E+00
          2   -1    0    0  502    0  0.00000000000E+00  0.00000000000E+00  0.48099320407E+03  0.48099320407E+03  0.00000000000E+00 0.  1.
          1   -1    0    0  501    0 -0.00000000000E+00 -0.00000000000E+00 -0.35712770269E+03  0.35712770269E+03  0.00000000000E+00 0.  1.
          2    1    1    2  501    0  0.16303776372E+02  0.16612422561E+02 -0.26111140025E+02  0.34979670392E+02  0.00000000000E+00 0.  1.
          1    1    1    2  502    0 -0.56189928848E+02 -0.22184209734E+02 -0.31463277185E+03  0.32037981895E+03  0.00000000000E+00 0.  1.
         22    1    1    2    0    0  0.52471155735E+02 -0.47550593736E+02  0.18973878980E+03  0.20252182475E+03  0.00000000000E+00 0.  1.
         22    1    1    2    0    0 -0.12585003259E+02  0.53122380909E+02  0.27487062346E+03  0.28023959268E+03  0.00000000000E+00 0. -1.
</event>
<event>
 6    1  0.4069520E-005  0.1459149E+03  0.7818608E-02  0.1248109E+00
          2   -1    0    0  502    0  0.00000000000E+00  0.00000000000E+00  0.63156873741E+03  0.63156873741E+03  0.00000000000E+00 0. -1.
          1   -1    0    0  501    0 -0.00000000000E+00 -0.00000000000E+00 -0.23448910032E+03  0.23448910032E+03  0.00000000000E+00 0. -1.
          2    1    1    2  501    0  0.76325894621E+02  0.41264169126E+02 -0.16916178990E+03  0.19011597778E+03  0.00000000000E+00 0. -1.
          1    1    1    2  502    0 -0.84420215253E+02 -0.10276001304E+03  0.50703542669E+03  0.52418633800E+03  0.00000000000E+00 0. -1.
         22    1    1    2    0    0  0.46417279540E+02  0.38557254684E+02  0.81842691994E+02  0.10168309575E+03  0.00000000000E+00 0.  1.
         22    1    1    2    0    0 -0.38322958908E+02  0.22938589228E+02 -0.22636691688E+02  0.50072426203E+02  0.00000000000E+00 0.  1.
</event>
<event>
 6    1  0.4069520E-005  0.9912134E+02  0.7818608E-02  0.1334852E+00
          2   -1    0    0  502    0  0.00000000000E+00  0.00000000000E+00  0.23594936390E+03  0.23594936390E+03  0.00000000000E+00 0.  1.
          1   -1    0    0  501    0 -0.00000000000E+00 -0.00000000000E+00 -0.57904536638E+03  0.57904536638E+03  0.00000000000E+00 0.  1.
          2    1    1    2  501    0  0.27791162728E+02 -0.58768936055E+01  0.33633950367E+02  0.44024189050E+02  0.00000000000E+00 0.  1.
          1    1    1    2  502    0 -0.11825459108E+02  0.82758695787E+02 -0.54229162657E+03  0.54869759564E+03  0.00000000000E+00 0.  1.
         22    1    1    2    0    0 -0.33204933311E+02 -0.18457356789E+02 -0.75707201419E+01  0.38737029046E+02  0.00000000000E+00 0. -1.
         22    1    1    2    0    0  0.17239229692E+02 -0.58424445392E+02  0.17313239386E+03  0.18353591655E+03  0.00000000000E+00 0.  1.
</event>
<event>
 6    1  0.4069520E-005  0.1253255E+03  0.7818608E-02  0.1278056E+00
          2   -1    0    0  502    0  0.00000000000E+00  0.00000000000E+00  0.15234377564E+04  0.15234377564E+04  0.00000000000E+00 0. -1.
          1   -1    0    0  501    0 -0.00000000000E+00 -0.00000000000E+00 -0.50641556413E+02  0.50641556413E+02  0.00000000000E+00 0. -1.
          2    1    1    2  501    0  0.59353142857E+02 -0.46407956211E+02  0.21788207787E+02  0.78429713535E+02  0.00000000000E+00 0. -1.
          1    1    1    2  502    0  0.26934017134E+02  0.10042223601E+03  0.11542597605E+04  0.11589329840E+04  0.00000000000E+00 0. -1.
         22    1    1    2    0    0 -0.38535596373E+02 -0.30978213243E+02  0.17452147802E+02  0.52432998641E+02  0.00000000000E+00 0. -1.
         22    1    1    2    0    0 -0.47751563618E+02 -0.23036066555E+02  0.27929608390E+03  0.28428361661E+03  0.00000000000E+00 0. -1.
</event>
<event>
 6    1  0.4069520E-005  0.2788740E+03  0.7818608E-02  0.1176253E+00
          2   -1    0    0  502    0  0.00000000000E+00  0.00000000000E+00  0.15250413978E+03  0.15250413978E+03  0.00000000000E+00 0. -1.
          1   -1    0    0  501    0 -0.00000000000E+00 -0.00000000000E+00 -0.28106886263E+03  0.28106886263E+03  0.00000000000E+00 0. -1.
          2    1    1    2  501    0 -0.92431996195E+02  0.10598577542E+03 -0.21343886898E+02  0.14224000851E+03  0.00000000000E+00 0. -1.
          1    1    1    2  502    0 -0.50760090796E+02 -0.47549682956E+02 -0.25035353166E+02  0.73921093572E+02  0.00000000000E+00 0. -1.
         22    1    1    2    0    0  0.13067628986E+03 -0.20525543496E+02 -0.10723156531E+03  0.17028270396E+03  0.00000000000E+00 0. -1.
         22    1    1    2    0    0  0.12515797131E+02 -0.37910548968E+02  0.25046082531E+02  0.47129196376E+02  0.00000000000E+00 0. -1.
</event>
<event>
 6    1  0.4069520E-005  0.1083901E+03  0.7818608E-02  0.1284858E+00
          2   -1    0    0  502    0  0.00000000000E+00  0.00000000000E+00  0.22248234605E+03  0.22248234605E+03  0.00000000000E+00 0.  1.
          1   -1    0    0  501    0 -0.00000000000E+00 -0.00000000000E+00 -0.13290763649E+04  0.13290763649E+04  0.00000000000E+00 0.  1.
          2    1    1    2  501    0  0.29079579934E+02 -0.83602566688E+02  0.83847587606E+01  0.88911840074E+02  0.00000000000E+00 0.  1.
          1    1    1    2  502    0 -0.49672000797E+02  0.56974710541E+02 -0.12647029400E+04  0.12669597277E+04  0.00000000000E+00 0.  1.
         22    1    1    2    0    0  0.55293483650E+02  0.46153719998E+02  0.13541289753E+03  0.15337596951E+03  0.00000000000E+00 0.  1.
         22    1    1    2    0    0 -0.34701062787E+02 -0.19525863852E+02  0.14311264791E+02  0.42311173673E+02  0.00000000000E+00 0. -1.
</event>
<event>
 6    1  0.4069520E-005  0.1026861E+03  0.7818608E-02  0.1275944E+00
          2   -1    0    0  502    0  0.00000000000E+00  0.00000000000E+00  0.45876445599E+03  0.45876445599E+03  0.00000000000E+00 0.  1.
          1   -1    0    0  501    0 -0.00000000000E+00 -0.00000000000E+00 -0.17319349511E+03  0.17319349511E+03  0.00000000000E+00 0.  1.
          2    1    1    2  501    0 -0.56296123809E+02  0.46970863842E+02 -0.46233535563E+00  0.73319365519E+02  0.00000000000E+00 0.  1.
          1    1    1    2  502    0  0.52345542048E+02  0.39285222781E+02 -0.11368786320E+03  0.13118046630E+03  0.00000000000E+00 0.  1.
         22    1    1    2    0    0 -0.18011209402E+02  0.15100290992E+02  0.12563409783E+02  0.26650735779E+02  0.00000000000E+00 0. -1.
         22    1    1    2    0    0  0.21961791163E+02 -0.10135637762E+03  0.38715774964E+03  0.40080738349E+03  0.00000000000E+00 0.  1.
</event>
<event>
 6    1  0.4069520E-005  0.1539948E+03  0.7818608E-02  0.1252755E+00
          2   -1    0    0  502    0  0.00000000000E+00  0.00000000000E+00  0.23947204100E+03  0.23947204100E+03  0.00000000000E+00 0. -1.
          1   -1    0    0  501    0 -0.00000000000E+00 -0.00000000000E+00 -0.13014801067E+04  0.13014801067E+04  0.00000000000E+00 0.  1.
          2    1    1    2  501    0 -0.71952686924E+02 -0.32829785947E+02 -0.30900450896E+02  0.84910669921E+02  0.00000000000E+00 0. -1.
          1    1    1    2  502    0  0.57803193339E+02  0.40159863899E+02 -0.12251643262E+04  0.12271844401E+04  0.00000000000E+00 0.  1.
         22    1    1    2    0    0 -0.20705868015E+02  0.41955879626E+02  0.14075410085E+03  0.14832648351E+03  0.00000000000E+00 0. -1.
         22    1    1    2    0    0  0.34855361600E+02 -0.49285957578E+02  0.53302610611E+02  0.80530554106E+02  0.00000000000E+00 0. -1.
</event>
<event>
 6    1  0.4069520E-005  0.2151529E+03  0.7818608E-02  0.1175130E+00
          2   -1    0    0  502    0  0.00000000000E+00  0.00000000000E+00  0.30788238573E+03  0.30788238573E+03  0.00000000000E+00 0.  1.
          1   -1    0    0  501    0 -0.00000000000E+00 -0.00000000000E+00 -0.20736640827E+04  0.20736640827E+04  0.00000000000E+00 0. -1.
          2    1    1    2  501    0 -0.38156512936E+02  0.18261796208E+03  0.10823091884E+03  0.21568303444E+03  0.00000000000E+00 0.  1.
          1    1    1    2  502    0 -0.24404542442E+02 -0.14734607986E+03 -0.19824565983E+04  0.19880745995E+04  0.00000000000E+00 0. -1.
         22    1    1    2    0    0 -0.24981777664E+02 -0.18278183426E+02  0.77404273686E+02  0.83364277658E+02  0.00000000000E+00 0. -1.
         22    1    1    2    0    0  0.87542833042E+02 -0.16993698798E+02  0.31039708802E+02  0.94424556861E+02  0.00000000000E+00 0.  1.
</event>
<event>
 6    1  0.4069520E-005  0.2624920E+03  0.7818608E-02  0.1191343E+00
          2   -1    0    0  502    0  0.00000000000E+00  0.00000000000E+00  0.40934460576E+03  0.40934460576E+03  0.00000000000E+00 0. -1.
          1   -1    0    0  501    0 -0.00000000000E+00 -0.00000000000E+00 -0.25170735194E+03  0.25170735194E+03  0.00000000000E+00 0. -1.
          2    1    1    2  501    0 -0.15443710610E+02  0.42951525904E+02 -0.29276392614E+02  0.54225906534E+02  0.00000000000E+00 0. -1.
          1    1    1    2  502    0 -0.16711427655E+02  0.26052064301E+02 -0.19529055664E+03  0.19772805411E+03  0.00000000000E+00 0. -1.
         22    1    1    2    0    0  0.72734685230E+00 -0.83309203654E+02  0.35635442595E+03  0.36596369948E+03  0.00000000000E+00 0. -1.
         22    1    1    2    0    0  0.31427791412E+02  0.14305613449E+02  0.25849777129E+02  0.43134297570E+02  0.00000000000E+00 0. -1.
</event>
<event>
 6    1  0.4069520E-005  0.1274800E+03  0.7818608E-02  0.1243607E+00
          2   -1    0    0  502    0  0.00000000000E+00  0.00000000000E+00  0.25577685457E+02  0.25577685457E+02  0.00000000000E+00 0. -1.
          1   -1    0    0  501    0 -0.00000000000E+00 -0.00000000000E+00 -0.24046690455E+04  0.24046690455E+04  0.00000000000E+00 0. -1.
          2    1    1    2  501    0  0.80162088139E+02  0.53330628946E+02 -0.15828699724E+04  0.15857955310E+04  0.00000000000E+00 0. -1.
          1    1    1    2  502    0  0.14079975675E+02 -0.42958462266E+02 -0.54328626821E+03  0.54516386933E+03  0.00000000000E+00 0. -1.
         22    1    1    2    0    0 -0.90786702428E+02 -0.38951660025E+02 -0.89394241150E+02  0.13323208137E+03  0.00000000000E+00 0. -1.
         22    1    1    2    0    0 -0.34553613861E+01  0.28579493344E+02 -0.16354087829E+03  0.16605524934E+03  0.00000000000E+00 0. -1.
</event>
<event>
 6    1  0.4069520E-005  0.1104468E+03  0.7818608E-02  0.1268227E+00
          2   -1    0    0  502    0  0.00000000000E+00  0.00000000000E+00  0.94744668783E+03  0.94744668783E+03  0.00000000000E+00 0. -1.
          1   -1    0    0  501    0 -0.00000000000E+00 -0.00000000000E+00 -0.23557185067E+02  0.23557185067E+02  0.00000000000E+00 0. -1.
          2    1    1    2  501    0  0.50364637076E+02  0.45679599279E+02  0.12227238848E+03  0.13990625233E+03  0.00000000000E+00 0. -1.
          1    1    1    2  502    0 -0.25820989443E+02  0.15091444080E+02  0.47135065792E+03  0.47229854742E+03  0.00000000000E+00 0. -1.
         22    1    1    2    0    0  0.50068926505E+02 -0.14280635330E+02  0.11284336894E+03  0.12427574124E+03  0.00000000000E+00 0. -1.
         22    1    1    2    0    0 -0.74612574138E+02 -0.46490408030E+02  0.21742308742E+03  0.23452333189E+03  0.00000000000E+00 0. -1.
</event>
<event>
 6    1  0.4069520E-005  0.8095999E+02  0.7818608E-02  0.1353839E+00
          2   -1    0    0  502    0  0.00000000000E+00  0.00000000000E+00  0.39140949394E+02  0.39140949394E+02  0.00000000000E+00 0. -1.
          1   -1    0    0  501    0 -0.00000000000E+00 -0.00000000000E+00 -0.83051752533E+03  0.83051752533E+03  0.00000000000E+00 0. -1.
          2    1    1    2  501    0  0.13230731489E+02 -0.74178789436E+02 -0.52161464160E+03  0.52702882216E+03  0.00000000000E+00 0. -1.
          1    1    1    2  502    0  0.13096115580E+02  0.57901791398E+02 -0.17291291015E+03  0.18281958371E+03  0.00000000000E+00 0. -1.
         22    1    1    2    0    0 -0.33236037255E+02  0.37734697025E+02  0.94346714233E+01  0.51162042149E+02  0.00000000000E+00 0. -1.
         22    1    1    2    0    0  0.69091901854E+01 -0.21457698987E+02 -0.10628369561E+03  0.10864802671E+03  0.00000000000E+00 0. -1.
</event>
<event>
 6    1  0.4069520E-005  0.1748054E+03  0.7818608E-02  0.1271817E+00
          2   -1    0    0  502    0  0.00000000000E+00  0.00000000000E+00  0.52514287619E+02  0.52514287619E+02  0.00000000000E+00 0.  1.
          1   -1    0    0  501    0 -0.00000000000E+00 -0.00000000000E+00 -0.10759007519E+04  0.10759007519E+04  0.00000000000E+00 0. -1.
          2    1    1    2  501    0 -0.50593938633E+02  0.61612548744E+02 -0.58564486577E+02  0.98922453857E+02  0.00000000000E+00 0.  1.
          1    1    1    2  502    0  0.43313772926E+02  0.60115374396E+01 -0.83092342775E+03  0.83207329262E+03  0.00000000000E+00 0. -1.
         22    1    1    2    0    0  0.26242830097E+02 -0.78821568138E+02 -0.14908487889E+03  0.17066876354E+03  0.00000000000E+00 0.  1.
         22    1    1    2    0    0 -0.18962664390E+02  0.11197481955E+02  0.15186328925E+02  0.26750529511E+02  0.00000000000E+00 0.  1.
</event>
<event>
 6    1  0.4069520E-005  0.1015609E+03  0.7818608E-02  0.1346641E+00
          2   -1    0    0  502    0  0.00000000000E+00  0.00000000000E+00  0.34933936789E+03  0.34933936789E+03  0.00000000000E+00 0. -1.
          1   -1    0    0  501    0 -0.00000000000E+00 -0.00000000000E+00 -0.11406976049E+03  0.11406976049E+03  0.00000000000E+00 0. -1.
          2    1    1    2  501    0 -0.12397885731E+02  0.35049352853E+02 -0.68666409932E+02  0.78084829250E+02  0.00000000000E+00 0. -1.
          1    1    1    2  502    0 -0.58274614171E+02  0.68095799844E+00  0.18828813531E+03  0.19710103059E+03  0.00000000000E+00 0. -1.
         22    1    1    2    0    0  0.27496528972E+02 -0.85650321121E+01  0.13164843070E+03  0.13476174601E+03  0.00000000000E+00 0.  1.
         22    1    1    2    0    0  0.43175970930E+02 -0.27165278739E+02 -0.16000548667E+02  0.53461522540E+02  0.00000000000E+00 0. -1.
</event>
<event>
 6    1  0.4069520E-005  0.3160445E+03  0.7818608E-02  0.1156884E+00
          2   -1    0    0  502    0  0.00000000000E+00  0.00000000000E+00  0.45999369984E+03  0.45999369984E+03  0.00000000000E+00 0.  1.
          1   -1    0    0  501    0 -0.00000000000E+00 -0.00000000000E+00 -0.30244122300E+03  0.30244122300E+03  0.00000000000E+00 0.  1.
          2    1    1    2  501    0  0.41621566893E+02  0.54154671689E+02 -0.41055949902E+02  0.79691118192E+02  0.00000000000E+00 0.  1.
          1    1    1    2  502    0 -0.80128076135E+02 -0.15097627324E+02 -0.22396900906E+03  0.23834966741E+03  0.00000000000E+00 0.  1.
         22    1    1    2    0    0  0.13717010946E+02  0.40577690676E+02  0.69826291794E+02  0.81917131270E+02  0.00000000000E+00 0. -1.
         22    1    1    2    0    0  0.24789498296E+02 -0.79634735042E+02  0.35275114401E+03  0.36247700596E+03  0.00000000000E+00 0.  1.
</event>
<event>
 6    1  0.4069520E-005  0.1197066E+03  0.7818608E-02  0.1293146E+00
          2   -1    0    0  502    0  0.00000000000E+00  0.00000000000E+00  0.30206757731E+03  0.30206757731E+03  0.00000000000E+00 0.  1.
          1   -1    0    0  501    0 -0.00000000000E+00 -0.00000000000E+00 -0.42760842936E+02  0.42760842936E+02  0.00000000000E+00 0.  1.
          2    1    1    2  501    0 -0.13028471311E+02  0.33749279642E+02  0.44963799057E+01  0.36455073355E+02  0.00000000000E+00 0.  1.
          1    1    1    2  502    0 -0.17147130254E+02 -0.11968333980E+02 -0.30915361819E+01  0.21138180863E+02  0.00000000000E+00 0.  1.
         22    1    1    2    0    0  0.73849145484E+02 -0.18328659826E+02  0.11603543767E+03  0.13875827490E+03  0.00000000000E+00 0.  1.
         22    1    1    2    0    0 -0.43673543918E+02 -0.34522858355E+01  0.14186645298E+03  0.14847689112E+03  0.00000000000E+00 0. -1.
</event>
<event>
 6    1  0.4069520E-005  0.1096530E+03  0.7818608E-02  0.1265285E+00
          2   -1    0    0  502    0  0.00000000000E+00  0.00000000000E+00  0.61469932562E+02  0.61469932562E+02  0.00000000000E+00 0.  1.
          1   -1    0    0  501    0 -0.00000000000E+00 -0.00000000000E+00 -0.36444083194E+03  0.36444083194E+03  0.00000000000E+00 0.  1.
          2    1    1    2  501    0 -0.78504640008E+02 -0.19453932266E+02 -0.13325234257E+03  0.15587694116E+03  0.00000000000E+00 0.  1.
          1    1    1    2  502    0  0.17426766162E+02 -0.17288131853E+02 -0.11053726535E+03  0.11323011398E+03  0.00000000000E+00 0.  1.
         22    1    1    2    0    0 -0.34891172909E+02  0.16711340021E+02 -0.42300881832E+02  0.57323881900E+02  0.00000000000E+00 0.  1.
         22    1    1    2    0    0  0.95969046755E+02  0.20030724098E+02 -0.16880409626E+02  0.99479827463E+02  0.00000000000E+00 0.  1.
</event>
<event>
 6    1  0.4069520E-005  0.1907216E+03  0.7818608E-02  0.1252817E+00
          2   -1    0    0  502    0  0.00000000000E+00  0.00000000000E+00  0.13816425118E+03  0.13816425118E+03  0.00000000000E+00 0.  1.
          1   -1    0    0  501    0 -0.00000000000E+00 -0.00000000000E+00 -0.35991229305E+03  0.35991229305E+03  0.00000000000E+00 0. -1.
          2    1    1    2  501    0 -0.20958705151E+02  0.24011272622E+00 -0.53863547599E+01  0.21641113495E+02  0.00000000000E+00 0.  1.
          1    1    1    2  502    0 -0.60565586935E+02  0.14031534802E+03 -0.22603945879E+03  0.27285605021E+03  0.00000000000E+00 0. -1.
         22    1    1    2    0    0 -0.24426547152E+02  0.29025912870E+01  0.54112753449E+01  0.25186566714E+02  0.00000000000E+00 0.  1.
         22    1    1    2    0    0  0.10595083924E+03 -0.14345805203E+03  0.42664963230E+01  0.17839281381E+03  0.00000000000E+00 0.  1.
</event>
<event>
 6    1  0.4069520E-005  0.4045514E+03  0.7818608E-02  0.1139616E+00
          2   -1    0    0  502    0  0.00000000000E+00  0.00000000000E+00  0.72736168215E+03  0.72736168215E+03  0.00000000000E+00 0. -1.
          1   -1    0    0  501    0 -0.00000000000E+00 -0.00000000000E+00 -0.67910386996E+03  0.67910386996E+03  0.00000000000E+00 0.  1.
          2    1    1    2  501    0 -0.66570567950E+02 -0.10699288528E+03  0.23263500732E+02  0.12814175152E+03  0.00000000000E+00 0. -1.
          1    1    1    2  502    0 -0.30269794783E+02 -0.12037188672E+01 -0.61253425133E+03  0.61328290248E+03  0.00000000000E+00 0.  1.
         22    1    1    2    0    0  0.63523911180E+02  0.11394869076E+03  0.60209009399E+03  0.61606174422E+03  0.00000000000E+00 0. -1.
         22    1    1    2    0    0  0.33316451553E+02 -0.57520866144E+01  0.35438468808E+02  0.48979153892E+02  0.00000000000E+00 0. -1.
</event>
<event>
 6    1  0.4069520E-005  0.1036697E+03  0.7818608E-02  0.1296214E+00
          2   -1    0    0  502    0  0.00000000000E+00  0.00000000000E+00  0.46983448350E+03  0.46983448350E+03  0.00000000000E+00 0. -1.
          1   -1    0    0  501    0 -0.00000000000E+00 -0.00000000000E+00 -0.40447788712E+02  0.40447788712E+02  0.00000000000E+00 0. -1.
          2    1    1    2  501    0  0.25257165003E+02 -0.50446772711E+02  0.15350749520E+03  0.16354617802E+03  0.00000000000E+00 0. -1.
          1    1    1    2  502    0  0.87512502481E+01 -0.24378609462E+02 -0.75954121617E+01  0.26992429793E+02  0.00000000000E+00 0. -1.
         22    1    1    2    0    0  0.44375092410E+01  0.82735918251E+02  0.90014637334E+02  0.12234197396E+03  0.00000000000E+00 0. -1.
         22    1    1    2    0    0 -0.38445924492E+02 -0.79105360777E+01  0.19345997442E+03  0.19740169045E+03  0.00000000000E+00 0. -1.
</event>
<event>
 6    1  0.4069520E-005  0.1585425E+03  0.7818608E-02  0.1264103E+00
          2   -1    0    0  502    0  0.00000000000E+00  0.00000000000E+00  0.16631134910E+03  0.16631134910E+03  0.00000000000E+00 0. -1.
          1   -1    0    0  501    0 -0.00000000000E+00 -0.00000000000E+00 -0.13629768449E+04  0.13629768449E+04  0.00000000000E+00 0.  1.
          2    1    1    2  501    0  0.50642669404E+01 -0.37826056781E+02 -0.95158327633E+02  0.10252592203E+03  0.00000000000E+00 0. -1.
          1    1    1    2  502    0 -0.11406802190E+02 -0.53937313877E+02 -0.12269878731E+04  0.12282257894E+04  0.00000000000E+00 0.  1.
         22    1    1    2    0    0  0.31901556448E+02  0.68913296286E+02  0.82388343396E+01  0.76384750442E+02  0.00000000000E+00 0. -1.
         22    1    1    2    0    0 -0.25559021198E+02  0.22850074372E+02  0.11724187055E+03  0.12215173218E+03  0.00000000000E+00 0. -1.
</event>
<event>
 6    1  0.4069520E-005  0.1018999E+03  0.7818608E-02  0.1292371E+00
          2   -1    0    0  502    0  0.00000000000E+00  0.00000000000E+00  0.14570487759E+03  0.14570487759E+03  0.00000000000E+00 0.  1.
          1   -1    0    0  501    0 -0.00000000000E+00 -0.00000000000E+00 -0.37757348872E+03  0.37757348872E+03  0.00000000000E+00 0. -1.
          2    1    1    2  501    0 -0.74038531464E+00  0.41214593927E+02  0.26245660965E+02  0.48867429260E+02  0.00000000000E+00 0.  1.
          1    1    1    2  502    0 -0.70664554721E+02 -0.62750408403E+02 -0.30921434385E+03  0.32333357928E+03  0.00000000000E+00 0. -1.
         22    1    1    2    0    0 -0.36310134455E+01  0.15482577486E+02  0.71366908686E+02  0.73117235449E+02  0.00000000000E+00 0. -1.
         22    1    1    2    0    0  0.75035953481E+02  0.60532369903E+01 -0.20266836933E+02  0.77960122320E+02  0.00000000000E+00 0.  1.
</event>
<event>
 6    1  0.4069520E-005  0.8923373E+02  0.7818608E-02  0.1321951E+00
          2   -1    0    0  502    0  0.00000000000E+00  0.00000000000E+00  0.88731834515E+03  0.88731834515E+03  0.00000000000E+00 0. -1.
          1   -1    0    0  501    0 -0.00000000000E+00 -0.00000000000E+00 -0.24459838973E+02  0.24459838973E+02  0.00000000000E+00 0. -1.
          2    1    1    2  501    0  0.21523856437E+02 -0.67558218961E+02  0.24411764365E+03  0.25420624164E+03  0.00000000000E+00 0. -1.
          1    1    1    2  502    0  0.72352506037E+01  0.76526747496E+02  0.11689403251E+03  0.13990320500E+03  0.00000000000E+00 0. -1.
         22    1    1    2    0    0  0.18729185447E+02 -0.53897457812E+02  0.30377593098E+03  0.30908823108E+03  0.00000000000E+00 0. -1.
         22    1    1    2    0    0 -0.47488292488E+02  0.44928929278E+02  0.19807089903E+03  0.20858050641E+03  0.00000000000E+00 0. -1.
</event>
<event>
 6    1  0.4069520E-005  0.1343604E+03  0.7818608E-02  0.1320213E+00
          2   -1    0    0  502    0  0.00000000000E+00  0.00000000000E+00  0.18752326264E+03  0.18752326264E+03  0.00000000000E+00 0.  1.
          1   -1    0    0  501    0 -0.00000000000E+00 -0.00000000000E+00 -0.38661799414E+03  0.38661799414E+03  0.00000000000E+00 0.  1.
          2    1    1    2  501    0  0.10069554934E+02  0.44663797282E+02 -0.27718000601E+02  0.53521381536E+02  0.00000000000E+00 0.  1.
          1    1    1    2  502    0 -0.50498748514E+02  0.46642332627E+01 -0.31638438815E+03  0.32042309489E+03  0.00000000000E+00 0.  1.
         22    1    1    2    0    0  0.58691027356E+02 -0.56857548902E+02  0.35793995371E+02  0.89211140918E+02  0.00000000000E+00 0.  1.
         22    1    1    2    0    0 -0.18261833776E+02  0.75295183581E+01  0.10921366188E+03  0.11098563943E+03  0.00000000000E+00 0.  1.
</event>
<event>
 6    1  0.4069520E-005  0.8222543E+02  0.7818608E-02  0.1324999E+00
          2   -1    0    0  502    0  0.00000000000E+00  0.00000000000E+00  0.22834669443E+03  0.22834669443E+03  0.00000000000E+00 0. -1.
          1   -1    0    0  501    0 -0.00000000000E+00 -0.00000000000E+00 -0.46050352375E+03  0.46050352375E+03  0.00000000000E+00 0.  1.
          2    1    1    2  501    0 -0.43996369356E+02  0.82568021352E+00  0.56774595483E+02  0.71831169812E+02  0.00000000000E+00 0. -1.
          1    1    1    2  502    0  0.40798580334E+02  0.77549940211E+01 -0.42861409359E+03  0.43062130151E+03  0.00000000000E+00 0.  1.
         22    1    1    2    0    0  0.56367473505E+02  0.48115040179E+01  0.30618880768E+02  0.64326965572E+02  0.00000000000E+00 0. -1.
         22    1    1    2    0    0 -0.53169684483E+02 -0.13392178253E+02  0.10906378802E+03  0.12207078129E+03  0.00000000000E+00 0. -1.
</event>
<event>
 6    1  0.4069520E-005  0.1493643E+03  0.7818608E-02  0.1277309E+00
          2   -1    0    0  502    0  0.00000000000E+00  0.00000000000E+00  0.12377694997E+03  0.12377694997E+03  0.00000000000E+00 0. -1.
          1   -1    0    0  501    0 -0.00000000000E+00 -0.00000000000E+00 -0.18023200111E+03  0.18023200111E+03  0.00000000000E+00 0.  1.
          2    1    1    2  501    0 -0.22856782153E+02 -0.62238417053E+02 -0.39292504461E+02  0.77071096752E+02  0.00000000000E+00 0. -1.
          1    1    1    2  502    0  0.58954569441E+00 -0.28948436003E+02 -0.59376988709E+02  0.66060474561E+02  0.00000000000E+00 0.  1.
         22    1    1    2    0    0 -0.21737086930E+02  0.24076509563E+02  0.69024805815E+02  0.76266657713E+02  0.00000000000E+00 0. -1.
         22    1    1    2    0    0  0.44004323389E+02  0.67110343493E+02 -0.26810363789E+02  0.84610722058E+02  0.00000000000E+00 0. -1.
</event>
<event>
 6    1  0.4069520E-005  0.1020123E+03  0.7818608E-02  0.1280478E+00
          2   -1    0    0  502    0  0.00000000000E+00  0.00000000000E+00  0.12089019258E+03  0.12089019258E+03  0.00000000000E+00 0.  1.
          1   -1    0    0  501    0 -0.00000000000E+00 -0.00000000000E+00 -0.83711230046E+03  0.83711230046E+03  0.00000000000E+00 0. -1.
          2    1    1    2  501    0  0.44138936491E+02 -0.40071427890E+02 -0.88321622102E+01  0.60265845526E+02  0.00000000000E+00 0.  1.
          1    1    1    2  502    0  0.20469610257E+02  0.69476894075E+02 -0.74382159691E+03  0.74733968969E+03  0.00000000000E+00 0. -1.
         22    1    1    2    0    0  0.38722970481E+02 -0.43184906259E+01  0.15991014325E+02  0.42116865308E+02  0.00000000000E+00 0. -1.
         22    1    1    2    0    0 -0.10333151723E+03 -0.25086975559E+02  0.20440636916E+02  0.10828009251E+03  0.00000000000E+00 0.  1.
</event>
<event>
 6    1  0.4069520E-005  0.5649844E+02  0.7818608E-02  0.1419153E+00
          2   -1    0    0  502    0  0.00000000000E+00  0.00000000000E+00  0.21769532937E+03  0.21769532937E+03  0.00000000000E+00 0.  1.
          1   -1    0    0  501    0 -0.00000000000E+00 -0.00000000000E+00 -0.83975335809E+02  0.83975335809E+02  0.00000000000E+00 0.  1.
          2    1    1    2  501    0  0.28080894912E+02 -0.10193862043E+02 -0.37640176764E+02  0.48054493955E+02  0.00000000000E+00 0.  1.
          1    1    1    2  502    0 -0.37661721690E+00  0.37464036175E+02 -0.25384649794E+01  0.37551826207E+02  0.00000000000E+00 0.  1.
         22    1    1    2    0    0 -0.37087783473E+02 -0.37825078795E+02  0.18846920895E+03  0.19577252870E+03  0.00000000000E+00 0.  1.
         22    1    1    2    0    0  0.93835057776E+01  0.10554904663E+02 -0.14570573649E+02  0.20291816321E+02  0.00000000000E+00 0.  1.
</event>
<event>
 6    1  0.4069520E-005  0.7702711E+02  0.7818608E-02  0.1355176E+00
          2   -1    0    0  502    0  0.00000000000E+00  0.00000000000E+00  0.20465957800E+03  0.20465957800E+03  0.00000000000E+00 0.  1.
          1   -1    0    0  501    0 -0.00000000000E+00 -0.00000000000E+00 -0.19189467101E+04  0.19189467101E+04  0.00000000000E+00 0.  1.
          2    1    1    2  501    0 -0.17755192045E+02  0.37338614562E+02  0.63080417081E+02  0.75422529797E+02  0.00000000000E+00 0.  1.
          1    1    1    2  502    0  0.56720243965E+02 -0.33168623207E+02 -0.18782351068E+04  0.18793840640E+04  0.00000000000E+00 0.  1.
         22    1    1    2    0    0  0.98545766406E+01  0.25404523519E+02  0.10790148649E+03  0.11128896299E+03  0.00000000000E+00 0.  1.
         22    1    1    2    0    0 -0.48819628560E+02 -0.29574514873E+02 -0.70339289145E+01  0.57510731335E+02  0.00000000000E+00 0.  1.
</event>
<event>
 6    1  0.4069520E-005  0.1022881E+03  0.7818608E-02  0.1276535E+00
          2   -1    0    0  502    0  0.00000000000E+00  0.00000000000E+00  0.45553214388E+03  0.45553214388E+03  0.00000000000E+00 0.  1.
          1   -1    0    0  501    0 -0.00000000000E+00 -0.00000000000E+00 -0.12804941387E+03  0.12804941387E+03  0.00000000000E+00 0.  1.
          2    1    1    2  501    0  0.24734159695E+02 -0.52505751058E+02 -0.22233553534E+02  0.62152742922E+02  0.00000000000E+00 0.  1.
          1    1    1    2  502    0 -0.56172342960E+02 -0.47103267632E+02 -0.51606211685E+02  0.89650716783E+02  0.00000000000E+00 0.  1.
         22    1    1    2    0    0  0.19203201117E+02  0.10534391205E+03  0.40404570607E+03  0.41799406136E+03  0.00000000000E+00 0.  1.
         22    1    1    2    0    0  0.12234982148E+02 -0.57348933624E+01 -0.27232108432E+01  0.13784036685E+02  0.00000000000E+00 0.  1.
</event>
<event>
 6    1  0.4069520E-005  0.2904877E+03  0.7818608E-02  0.1154719E+00
          2   -1    0    0  502    0  0.00000000000E+00  0.00000000000E+00  0.48641462636E+03  0.48641462636E+03  0.00000000000E+00 0. -1.
          1   -1    0    0  501    0 -0.00000000000E+00 -0.00000000000E+00 -0.20206714725E+03  0.20206714725E+03  0.00000000000E+00 0. -1.
          2    1    1    2  501    0  0.93690174465E+02 -0.11444527681E+03 -0.41154111204E+02  0.15352273787E+03  0.00000000000E+00 0. -1.
          1    1    1    2  502    0 -0.14952172723E+03  0.18813205678E+03  0.93733529008E+02  0.25794649089E+03  0.00000000000E+00 0. -1.
         22    1    1    2    0    0  0.55879317861E+02  0.15670607044E+02  0.12478659929E+03  0.13762180588E+03  0.00000000000E+00 0.  1.
         22    1    1    2    0    0 -0.47765091673E-01 -0.89357387012E+02  0.10698146202E+03  0.13939073897E+03  0.00000000000E+00 0.  1.
</event>
<event>
 6    1  0.4069520E-005  0.1116109E+03  0.7818608E-02  0.1258910E+00
          2   -1    0    0  502    0  0.00000000000E+00  0.00000000000E+00  0.44506133461E+03  0.44506133461E+03  0.00000000000E+00 0. -1.
          1   -1    0    0  501    0 -0.00000000000E+00 -0.00000000000E+00 -0.19558467012E+03  0.19558467012E+03  0.00000000000E+00 0.  1.
          2    1    1    2  501    0  0.25556309086E+02  0.68634206121E+02  0.85278292856E+02  0.11241070419E+03  0.00000000000E+00 0. -1.
          1    1    1    2  502    0  0.25178326888E+02 -0.18095646241E+02 -0.16476302286E+03  0.16765516472E+03  0.00000000000E+00 0.  1.
         22    1    1    2    0    0  0.12383175137E+02  0.37286459763E+02  0.79290019270E+02  0.88490283444E+02  0.00000000000E+00 0.  1.
         22    1    1    2    0    0 -0.63117811110E+02 -0.87825019642E+02  0.24967137522E+03  0.27208985236E+03  0.00000000000E+00 0. -1.
</event>
<event>
 6    1  0.4069520E-005  0.1749314E+03  0.7818608E-02  0.1189874E+00
          2   -1    0    0  502    0  0.00000000000E+00  0.00000000000E+00  0.25550297857E+03  0.25550297857E+03  0.00000000000E+00 0.  1.
          1   -1    0    0  501    0 -0.00000000000E+00 -0.00000000000E+00 -0.49288734399E+03  0.49288734399E+03  0.00000000000E+00 0.  1.
          2    1    1    2  501    0  0.22249896659E+03 -0.87029373263E+02  0.76727597781E+02  0.25093231400E+03  0.00000000000E+00 0.  1.
          1    1    1    2  502    0 -0.11869770179E+03  0.97636147600E+02 -0.29716169071E+03  0.33455497627E+03  0.00000000000E+00 0.  1.
         22    1    1    2    0    0  0.14664053143E+02 -0.24518013886E+02  0.23457540915E+02  0.36965168541E+02  0.00000000000E+00 0. -1.
         22    1    1    2    0    0 -0.11846531795E+03  0.13911239549E+02 -0.40407813412E+02  0.12593786376E+03  0.00000000000E+00 0.  1.
</event>
<event>
 6    1  0.4128030E-005  0.1344371E+03  0.7818608E-02  0.1281379E+00
          2   -1    0    0  502    0  0.00000000000E+00  0.00000000000E+00  0.11465625997E+03  0.11465625997E+03  0.00000000000E+00 0.  1.
          1   -1    0    0  501    0 -0.00000000000E+00 -0.00000000000E+00 -0.20012005873E+04  0.20012005873E+04  0.00000000000E+00 0.  1.
          2    1    1    2  501    0 -0.58127079548E+02 -0.91784908459E+02 -0.67104159252E+03  0.67977940958E+03  0.00000000000E+00 0.  1.
          1    1    1    2  502    0  0.87204004471E+02  0.93662788449E+02 -0.12826150794E+04  0.12889835912E+04  0.00000000000E+00 0.  1.
         22    1    1    2    0    0  0.11016714953E+02 -0.61290162189E+01 -0.35058098201E+02  0.37255913593E+02  0.00000000000E+00 0. -1.
         22    1    1    2    0    0 -0.40093639876E+02  0.42511362288E+01  0.10217044283E+03  0.10983793291E+03  0.00000000000E+00 0.  1.
</event>
<event>
 6    1  0.4069520E-005  0.1565605E+03  0.7818608E-02  0.1299657E+00
          2   -1    0    0  502    0  0.00000000000E+00  0.00000000000E+00  0.68428400066E+02  0.68428400066E+02  0.00000000000E+00 0. -1.
          1   -1    0    0  501    0 -0.00000000000E+00 -0.00000000000E+00 -0.14227245497E+04  0.14227245497E+04  0.00000000000E+00 0.  1.
          2    1    1    2  501    0  0.47624056713E+02 -0.47524035866E+02 -0.74728660149E+02  0.10055325659E+03  0.00000000000E+00 0. -1.
          1    1    1    2  502    0  0.19483898721E+02  0.21077223779E+02 -0.12405008177E+04  0.12408328455E+04  0.00000000000E+00 0.  1.
         22    1    1    2    0    0 -0.80407154729E+02  0.38772162735E+02 -0.70317877381E+02  0.11363623988E+03  0.00000000000E+00 0. -1.
         22    1    1    2    0    0  0.13299199295E+02 -0.12325350648E+02  0.31251205601E+02  0.36130607828E+02  0.00000000000E+00 0.  1.
</event>
<event>
 6    1  0.4069520E-005  0.9716202E+02  0.7818608E-02  0.1307749E+00
          2   -1    0    0  502    0  0.00000000000E+00  0.00000000000E+00  0.24981715051E+03  0.24981715051E+03  0.00000000000E+00 0. -1.
          1   -1    0    0  501    0 -0.00000000000E+00 -0.00000000000E+00 -0.75238418063E+02  0.75238418063E+02  0.00000000000E+00 0.  1.
          2    1    1    2  501    0  0.32202536180E+02 -0.27281740197E+02  0.39184187859E+02  0.57590774111E+02  0.00000000000E+00 0. -1.
          1    1    1    2  502    0  0.38324573813E-01  0.35999507064E+02 -0.36412408817E+02  0.51203803506E+02  0.00000000000E+00 0.  1.
         22    1    1    2    0    0 -0.60915751546E+02 -0.44110034145E+02  0.62310772269E+02  0.97668092228E+02  0.00000000000E+00 0. -1.
         22    1    1    2    0    0  0.28674890792E+02  0.35392267278E+02  0.10949618114E+03  0.11859289873E+03  0.00000000000E+00 0. -1.
</event>
<event>
 6    1  0.4069520E-005  0.1183574E+03  0.7818608E-02  0.1340348E+00
          2   -1    0    0  502    0  0.00000000000E+00  0.00000000000E+00  0.75330399285E+02  0.75330399285E+02  0.00000000000E+00 0. -1.
          1   -1    0    0  501    0 -0.00000000000E+00 -0.00000000000E+00 -0.67571027843E+03  0.67571027843E+03  0.00000000000E+00 0. -1.
          2    1    1    2  501    0  0.70490050998E+02  0.29045096024E+02 -0.41183130198E+03  0.41882870745E+03  0.00000000000E+00 0. -1.
          1    1    1    2  502    0 -0.12419739174E+03 -0.47719717487E+02 -0.83064246337E+02  0.15684971333E+03  0.00000000000E+00 0. -1.
         22    1    1    2    0    0  0.36604507895E+02  0.77752366492E+01 -0.13469775525E+03  0.13979924740E+03  0.00000000000E+00 0. -1.
         22    1    1    2    0    0  0.17102832849E+02  0.10899384813E+02  0.29213424424E+02  0.35563009537E+02  0.00000000000E+00 0.  1.
</event>
<event>
 6    1  0.4069520E-005  0.1433000E+03  0.7818608E-02  0.1299010E+00
          2   -1    0    0  502    0  0.00000000000E+00  0.00000000000E+00  0.25812615119E+03  0.25812615119E+03  0.00000000000E+00 0.  1.
          1   -1    0    0  501    0 -0.00000000000E+00 -0.00000000000E+00 -0.13780187917E+03  0.13780187917E+03  0.00000000000E+00 0. -1.
          2    1    1    2  501    0  0.18122706677E+02 -0.54646602420E+02  0.23826348022E+01  0.57622570248E+02  0.00000000000E+00 0.  1.
          1    1    1    2  502    0  0.39200855750E+02  0.15520202075E+02 -0.81973718983E+02  0.92180661572E+02  0.00000000000E+00 0. -1.
         22    1    1    2    0    0 -0.80490841127E+02  0.33132348057E+02  0.63798021705E+02  0.10791994981E+03  0.00000000000E+00 0. -1.
         22    1    1    2    0    0  0.23167278700E+02  0.59940522882E+01  0.13611733449E+03  0.13820484874E+03  0.00000000000E+00 0. -1.
</event>
<event>
 6    1  0.4069520E-005  0.4486796E+02  0.7818608E-02  0.1494358E+00
          2   -1    0    0  502    0  0.00000000000E+00  0.00000000000E+00  0.22175828241E+03  0.22175828241E+03  0.00000000000E+00 0.  1.
          1   -1    0    0  501    0 -0.00000000000E+00 -0.00000000000E+00 -0.23393716889E+03  0.23393716889E+03  0.00000000000E+00 0.  1.
          2    1    1    2  501    0  0.32592641856E+02 -0.63648465394E+01  0.21037820470E+02  0.39311340155E+02  0.00000000000E+00 0.  1.
          1    1    1    2  502    0 -0.27566441847E+02  0.95292469122E+01 -0.20352451049E+03  0.20560384635E+03  0.00000000000E+00 0.  1.
         22    1    1    2    0    0 -0.32706086881E+02 -0.37742724112E+01  0.17881149366E+03  0.18181717058E+03  0.00000000000E+00 0.  1.
         22    1    1    2    0    0  0.27679886872E+02  0.60987203843E+00 -0.85036901238E+01  0.28963094221E+02  0.00000000000E+00 0. -1.
</event>
<event>
 6    1  0.4069520E-005  0.4116925E+03  0.7818608E-02  0.1129469E+00
          2   -1    0    0  502    0  0.00000000000E+00  0.00000000000E+00  0.11924500822E+03  0.11924500822E+03  0.00000000000E+00 0. -1.
          1   -1    0    0  501    0 -0.00000000000E+00 -0.00000000000E+00 -0.71296145014E+03  0.71296145014E+03  0.00000000000E+00 0. -1.
          2    1    1    2  501    0  0.31565221255E+02  0.27436023403E+02 -0.47612743055E+03  0.47796069785E+03  0.00000000000E+00 0. -1.
          1    1    1    2  502    0 -0.10303364622E+03 -0.14630684130E+02 -0.17220681509E+03  0.20120928492E+03  0.00000000000E+00 0. -1.
         22    1    1    2    0    0  0.99947887250E+02  0.11441677762E+02  0.56875547179E+02  0.11556521978E+03  0.00000000000E+00 0. -1.
         22    1    1    2    0    0 -0.28479462280E+02 -0.24247017035E+02 -0.22577434594E+01  0.37471255815E+02  0.00000000000E+00 0. -1.
</event>
<event>
 6    1  0.4069520E-005  0.5069074E+02  0.7818608E-02  0.1528906E+00
          2   -1    0    0  502    0  0.00000000000E+00  0.00000000000E+00  0.91726838600E+02  0.91726838600E+02  0.00000000000E+00 0. -1.
          1   -1    0    0  501    0 -0.00000000000E+00 -0.00000000000E+00 -0.38225780350E+03  0.38225780350E+03  0.00000000000E+00 0. -1.
          2    1    1    2  501    0  0.23680645317E+02  0.20774337810E+02 -0.11914849315E+03  0.12324248251E+03  0.00000000000E+00 0. -1.
          1    1    1    2  502    0  0.16372351486E+01 -0.27512644647E+02 -0.21204010781E+03  0.21382383748E+03  0.00000000000E+00 0. -1.
         22    1    1    2    0    0 -0.15289832169E+02 -0.42744570134E+01 -0.46169542088E+02  0.48822910269E+02  0.00000000000E+00 0. -1.
         22    1    1    2    0    0 -0.10028048296E+02  0.11012763850E+02  0.86827178157E+02  0.88095411838E+02  0.00000000000E+00 0. -1.
</event>
<event>
 6    1  0.4069520E-005  0.4512858E+03  0.7818608E-02  0.1133344E+00
          2   -1    0    0  502    0  0.00000000000E+00  0.00000000000E+00  0.41818982407E+03  0.41818982407E+03  0.00000000000E+00 0.  1.
          1   -1    0    0  501    0 -0.00000000000E+00 -0.00000000000E+00 -0.44662477029E+03  0.44662477029E+03  0.00000000000E+00 0. -1.
          2    1    1    2  501    0 -0.91776859934E+02  0.47806134946E+02 -0.10263832112E+03  0.14574993489E+03  0.00000000000E+00 0.  1.
          1    1    1    2  502    0  0.32148453999E+02 -0.99694393262E+01 -0.30823940383E+03  0.31007167379E+03  0.00000000000E+00 0. -1.
         22    1    1    2    0    0  0.47121965589E+02 -0.60431929975E+02  0.37407798646E+03  0.38184661548E+03  0.00000000000E+00 0.  1.
         22    1    1    2    0    0  0.12506440345E+02  0.22595234355E+02  0.83647922725E+01  0.27146370208E+02  0.00000000000E+00 0.  1.
</event>
<event>
 6    1  0.4069520E-005  0.6315283E+03  0.7818608E-02  0.1102256E+00
          2   -1    0    0  502    0  0.00000000000E+00  0.00000000000E+00  0.69361433963E+03  0.69361433963E+03  0.00000000000E+00 0.  1.
          1   -1    0    0  501    0 -0.00000000000E+00 -0.00000000000E+00 -0.49820157602E+03  0.49820157602E+03  0.00000000000E+00 0.  1.
          2    1    1    2  501    0 -0.12881467093E+03 -0.91899266873E+02 -0.10618361004E+03  0.19056141724E+03  0.00000000000E+00 0.  1.
          1    1    1    2  502    0 -0.14088827434E+02 -0.15601738811E+02 -0.33124281596E+03  0.33190919306E+03  0.00000000000E+00 0.  1.
         22    1    1    2    0    0  0.14903428927E+03  0.12713993891E+03  0.54527866381E+03  0.57940021113E+03  0.00000000000E+00 0.  1.
         22    1    1    2    0    0 -0.61307909119E+01 -0.19638933224E+02  0.87560525801E+02  0.89945094218E+02  0.00000000000E+00 0.  1.
</event>
<event>
 6    1  0.4069520E-005  0.1133965E+03  0.7818608E-02  0.1255379E+00
          2   -1    0    0  502    0  0.00000000000E+00  0.00000000000E+00  0.28043012989E+02  0.28043012989E+02  0.00000000000E+00 0.  1.
          1   -1    0    0  501    0 -0.00000000000E+00 -0.00000000000E+00 -0.96311049715E+03  0.96311049715E+03  0.00000000000E+00 0.  1.
          2    1    1    2  501    0 -0.13048873273E+02  0.84612110792E+02 -0.15378140811E+03  0.17600626087E+03  0.00000000000E+00 0.  1.
          1    1    1    2  502    0  0.45347665580E+02 -0.10607423877E+02 -0.45113589868E+03  0.45353338057E+03  0.00000000000E+00 0.  1.
         22    1    1    2    0    0  0.13127577318E+01  0.30694687391E+02 -0.34606379061E+02  0.46276221092E+02  0.00000000000E+00 0. -1.
         22    1    1    2    0    0 -0.33611550039E+02 -0.10469937431E+03 -0.29554379832E+03  0.31533764761E+03  0.00000000000E+00 0.  1.
</event>
<event>
 6    1  0.4069520E-005  0.1644079E+03  0.7818608E-02  0.1261576E+00
          2   -1    0    0  502    0  0.00000000000E+00  0.00000000000E+00  0.11564776168E+03  0.11564776168E+03  0.00000000000E+00 0. -1.
          1   -1    0    0  501    0 -0.00000000000E+00 -0.00000000000E+00 -0.10933536304E+04  0.10933536304E+04  0.00000000000E+00 0. -1.
          2    1    1    2  501    0  0.18723377415E+02  0.47695587698E+02 -0.38818507800E+02  0.64283049830E+02  0.00000000000E+00 0. -1.
          1    1    1    2  502    0 -0.96962839843E+02 -0.13092796552E+03 -0.96102207032E+03  0.97473449929E+03  0.00000000000E+00 0. -1.
         22    1    1    2    0    0  0.47093462780E+02  0.91797097069E+02 -0.31063023795E+02  0.10774698471E+03  0.00000000000E+00 0. -1.
         22    1    1    2    0    0  0.31145999648E+02 -0.85647192452E+01  0.53197733187E+02  0.62236858260E+02  0.00000000000E+00 0.  1.
</event>
<event>
 6    1  0.4069520E-005  0.2351326E+03  0.7818608E-02  0.1182442E+00
          2   -1    0    0  502    0  0.00000000000E+00  0.00000000000E+00  0.11376358849E+04  0.11376358849E+04  0.00000000000E+00 0.  1.
          1   -1    0    0  501    0 -0.00000000000E+00 -0.00000000000E+00 -0.19586834838E+03  0.19586834838E+03  0.00000000000E+00 0.  1.
          2    1    1    2  501    0  0.27528583266E+02 -0.13035061458E+01  0.49147816845E+03  0.49225025352E+03  0.00000000000E+00 0.  1.
          1    1    1    2  502    0 -0.64900291502E+02  0.15520003169E+03 -0.13914636075E+03  0.21831355291E+03  0.00000000000E+00 0.  1.
         22    1    1    2    0    0  0.55421033116E+02 -0.16917484130E+02  0.24649606273E+03  0.25321532561E+03  0.00000000000E+00 0.  1.
         22    1    1    2    0    0 -0.18049324879E+02 -0.13697904142E+03  0.34293966604E+03  0.36972510120E+03  0.00000000000E+00 0. -1.
</event>
<event>
 6    1  0.4069520E-005  0.9464684E+02  0.7818608E-02  0.1295204E+00
          2   -1    0    0  502    0  0.00000000000E+00  0.00000000000E+00  0.10325613119E+03  0.10325613119E+03  0.00000000000E+00 0. -1.
          1   -1    0    0  501    0 -0.00000000000E+00 -0.00000000000E+00 -0.24831460378E+03  0.24831460378E+03  0.00000000000E+00 0.  1.
          2    1    1    2  501    0 -0.94843336099E+00  0.58520319347E+02 -0.11040483060E+02  0.59560218003E+02  0.00000000000E+00 0. -1.
          1    1    1    2  502    0  0.18482131787E+02 -0.37584077750E+02 -0.15394003734E+03  0.15953584924E+03  0.00000000000E+00 0.  1.
         22    1    1    2    0    0 -0.15293379460E+02  0.53379549648E+02  0.16986267351E+02  0.58067177083E+02  0.00000000000E+00 0. -1.
         22    1    1    2    0    0 -0.22403189663E+01 -0.74315791245E+02  0.29357804569E+01  0.74407490647E+02  0.00000000000E+00 0.  1.
</event>
<event>
 6    1  0.4069520E-005  0.1321605E+03  0.7818608E-02  0.1271359E+00
          2   -1    0    0  502    0  0.00000000000E+00  0.00000000000E+00  0.10098285877E+03  0.10098285877E+03  0.00000000000E+00 0.  1.
          1   -1    0    0  501    0 -0.00000000000E+00 -0.00000000000E+00 -0.10153871311E+04  0.10153871311E+04  0.00000000000E+00 0.  1.
          2    1    1    2  501    0  0.22889630208E+02  0.32017668962E+02  0.13554205890E+02  0.41626707702E+02  0.00000000000E+00 0.  1.
          1    1    1    2  502    0 -0.93314286409E+02 -0.66761506941E+02 -0.92381286766E+03  0.93091077408E+03  0.00000000000E+00 0.  1.
         22    1    1    2    0    0  0.91506512821E+02 -0.12145702781E+02 -0.45318764339E+01  0.92420224457E+02  0.00000000000E+00 0.  1.
         22    1    1    2    0    0 -0.21081856619E+02  0.46889540761E+02  0.38626583367E+00  0.51412283674E+02  0.00000000000E+00 0.  1.
</event>
<event>
 6    1  0.4069520E-005  0.1270041E+03  0.7818608E-02  0.1232630E+00
          2   -1    0    0  502    0  0.00000000000E+00  0.00000000000E+00  0.46237583220E+02  0.46237583220E+02  0.00000000000E+00 0. -1.
          1   -1    0    0  501    0 -0.00000000000E+00 -0.00000000000E+00 -0.97454392451E+03  0.97454392451E+03  0.00000000000E+00 0.  1.
          2    1    1    2  501    0 -0.45856555572E+02  0.91354648189E+02 -0.80936025796E+02  0.13038073365E+03  0.00000000000E+00 0. -1.
          1    1    1    2  502    0 -0.24547570426E+02  0.10012881375E+02 -0.50448192352E+03  0.50517804006E+03  0.00000000000E+00 0.  1.
         22    1    1    2    0    0  0.79975518587E+02 -0.11663802690E+03 -0.33823312080E+03  0.36660899729E+03  0.00000000000E+00 0.  1.
         22    1    1    2    0    0 -0.95713925893E+01  0.15270497339E+02 -0.46552711792E+01  0.18613736724E+02  0.00000000000E+00 0.  1.
</event>
<event>
 6    1  0.4069520E-005  0.6785032E+02  0.7818608E-02  0.1375754E+00
          2   -1    0    0  502    0  0.00000000000E+00  0.00000000000E+00  0.10428523220E+03  0.10428523220E+03  0.00000000000E+00 0. -1.
          1   -1    0    0  501    0 -0.00000000000E+00 -0.00000000000E+00 -0.10168981319E+03  0.10168981319E+03  0.00000000000E+00 0. -1.
          2    1    1    2  501    0 -0.53120145172E+01 -0.25023488201E+02 -0.19090795145E+02  0.31919444219E+02  0.00000000000E+00 0. -1.
          1    1    1    2  502    0  0.97155653182E+00  0.43376723668E+02 -0.11936676598E+02  0.44999648070E+02  0.00000000000E+00 0. -1.
         22    1    1    2    0    0  0.37688152757E+01 -0.69198191660E+02  0.23091014351E+01  0.69339207142E+02  0.00000000000E+00 0. -1.
         22    1    1    2    0    0  0.57164270972E+00  0.50844956194E+02  0.31313789317E+02  0.59716745953E+02  0.00000000000E+00 0. -1.
</event>
<event>
 6    1  0.4069520E-005  0.9698108E+02  0.7818608E-02  0.1358755E+00
          2   -1    0    0  502    0  0.00000000000E+00  0.00000000000E+00  0.39580679358E+03  0.39580679358E+03  0.00000000000E+00 0. -1.
          1   -1    0    0  501    0 -0.00000000000E+00 -0.00000000000E+00 -0.58202667812E+03  0.58202667812E+03  0.00000000000E+00 0. -1.
          2    1    1    2  501    0 -0.23647520206E+01  0.40698458519E+02  0.11408591474E+03  0.12115094931E+03  0.00000000000E+00 0. -1.
          1    1    1    2  502    0  0.34721611424E+02 -0.82840015991E+02 -0.55913300563E+03  0.56630184225E+03  0.00000000000E+00 0. -1.
         22    1    1    2    0    0  0.18551158612E+02 -0.19510134185E+02  0.95022889811E+01  0.28549681568E+02  0.00000000000E+00 0. -1.
         22    1    1    2    0    0 -0.50908018015E+02  0.61651691657E+02  0.24932491738E+03  0.26183099857E+03  0.00000000000E+00 0. -1.
</event>
<event>
 6    1  0.4069520E-005  0.1493834E+03  0.7818608E-02  0.1264270E+00
          2   -1    0    0  502    0  0.00000000000E+00  0.00000000000E+00  0.30620700409E+02  0.30620700409E+02  0.00000000000E+00 0.  1.
          1   -1    0    0  501    0 -0.00000000000E+00 -0.00000000000E+00 -0.91074435427E+03  0.91074435427E+03  0.00000000000E+00 0.  1.
          2    1    1    2  501    0  0.45683190423E+02  0.12427108598E+02 -0.18359502750E+03  0.18960095210E+03  0.00000000000E+00 0.  1.
          1    1    1    2  502    0 -0.82922384281E+02 -0.96881150567E+02 -0.37449620368E+03  0.39561279772E+03  0.00000000000E+00 0.  1.
         22    1    1    2    0    0 -0.40318728855E+02  0.65735023145E+01 -0.10966912348E+03  0.11703045533E+03  0.00000000000E+00 0. -1.
         22    1    1    2    0    0  0.77557922713E+02  0.77880539655E+02 -0.21236329921E+03  0.23912084953E+03  0.00000000000E+00 0.  1.
</event>
<event>
 6    1  0.4069520E-005  0.2358464E+03  0.7818608E-02  0.1212473E+00
          2   -1    0    0  502    0  0.00000000000E+00  0.00000000000E+00  0.14275020806E+03  0.14275020806E+03  0.00000000000E+00 0. -1.
          1   -1    0    0  501    0 -0.00000000000E+00 -0.00000000000E+00 -0.45823564241E+03  0.45823564241E+03  0.00000000000E+00 0. -1.
          2    1    1    2  501    0  0.13296013465E+02 -0.76470385903E+02 -0.86787765699E+02  0.11643289986E+03  0.00000000000E+00 0. -1.
          1    1    1    2  502    0  0.19901160623E+02  0.46586849628E+02 -0.31825007085E+03  0.32225688255E+03  0.00000000000E+00 0. -1.
         22    1    1    2    0    0 -0.34262327729E+01  0.28149727101E+02  0.11783306909E+03  0.12119727051E+03  0.00000000000E+00 0. -1.
         22    1    1    2    0    0 -0.29770941315E+02  0.17338091738E+01 -0.28280666896E+02  0.41098797563E+02  0.00000000000E+00 0. -1.
</event>
<event>
 6    1  0.4069520E-005  0.1944218E+03  0.7818608E-02  0.1156445E+00
          2   -1    0    0  502    0  0.00000000000E+00  0.00000000000E+00  0.11656042321E+04  0.11656042321E+04  0.00000000000E+00 0. -1.
          1   -1    0    0  501    0 -0.00000000000E+00 -0.00000000000E+00 -0.37636589034E+03  0.37636589034E+03  0.00000000000E+00 0.  1.
          2    1    1    2  501    0 -0.15638360690E+03 -0.70594036816E+02  0.41514117204E+03  0.44920100542E+03  0.00000000000E+00 0. -1.
          1    1    1    2  502    0 -0.36352192936E+02  0.18283524211E+03 -0.31084520065E+03  0.36245682012E+03  0.00000000000E+00 0.  1.
         22    1    1    2    0    0 -0.12770237287E+02 -0.19285399199E+02  0.11616323006E+03  0.11844366425E+03  0.00000000000E+00 0. -1.
         22    1    1    2    0    0  0.20550603712E+03 -0.92955806094E+02  0.56877914027E+03  0.61186863262E+03  0.00000000000E+00 0.  1.
</event>
<event>
 6    1  0.4069520E-005  0.1609886E+03  0.7818608E-02  0.1220585E+00
          2   -1    0    0  502    0  0.00000000000E+00  0.00000000000E+00  0.37887982240E+03  0.37887982240E+03  0.00000000000E+00 0. -1.
          1   -1    0    0  501    0 -0.00000000000E+00 -0.00000000000E+00 -0.17643582442E+03  0.17643582442E+03  0.00000000000E+00 0. -1.
          2    1    1    2  501    0 -0.18479043498E+02 -0.33451773771E+02 -0.35582453117E+02  0.52216924334E+02  0.00000000000E+00 0. -1.
          1    1    1    2  502    0  0.19495190761E+02  0.76697544086E+01 -0.11998358282E+03  0.12179880025E+03  0.00000000000E+00 0. -1.
         22    1    1    2    0    0  0.16309980171E+02  0.75907396164E+02  0.22946307328E+03  0.24224213144E+03  0.00000000000E+00 0. -1.
         22    1    1    2    0    0 -0.17326127434E+02 -0.50125376802E+02  0.12854696064E+03  0.13905779079E+03  0.00000000000E+00 0.  1.
</event>
<event>
 6    1  0.4069520E-005  0.1092724E+03  0.7818608E-02  0.1369876E+00
          2   -1    0    0  502    0  0.00000000000E+00  0.00000000000E+00  0.10878377746E+03  0.10878377746E+03  0.00000000000E+00 0. -1.
          1   -1    0    0  501    0 -0.00000000000E+00 -0.00000000000E+00 -0.33745036047E+03  0.33745036047E+03  0.00000000000E+00 0. -1.
          2    1    1    2  501    0 -0.41208367515E+02 -0.91408884341E+01 -0.13915145892E+02  0.44444534870E+02  0.00000000000E+00 0. -1.
          1    1    1    2  502    0 -0.97098437267E+01  0.29881875238E+02 -0.25520212930E+03  0.25712902273E+03  0.00000000000E+00 0. -1.
         22    1    1    2    0    0 -0.15033369363E+02  0.42812047669E+01  0.67370151941E+02  0.69159730200E+02  0.00000000000E+00 0. -1.
         22    1    1    2    0    0  0.65951580605E+02 -0.25022191571E+02 -0.26919459759E+02  0.75500850121E+02  0.00000000000E+00 0. -1.
</event>
<event>
 6    1  0.4069520E-005  0.5884451E+02  0.7818608E-02  0.1408656E+00
          2   -1    0    0  502    0  0.00000000000E+00  0.00000000000E+00  0.83484392280E+02  0.83484392280E+02  0.00000000000E+00 0.  1.
          1   -1    0    0  501    0 -0.00000000000E+00 -0.00000000000E+00 -0.52507347691E+03  0.52507347691E+03  0.00000000000E+00 0.  1.
          2    1    1    2  501    0 -0.16027430220E+02  0.21319953199E+02  0.21375003206E+02  0.34180545430E+02  0.00000000000E+00 0.  1.
          1    1    1    2  502    0  0.43066686476E+01 -0.54682352094E+02 -0.44195510752E+03  0.44534596000E+03  0.00000000000E+00 0.  1.
         22    1    1    2    0    0  0.46610370175E+02  0.26523766954E+02 -0.57123678930E+02  0.78352737768E+02  0.00000000000E+00 0.  1.
         22    1    1    2    0    0 -0.34889608603E+02  0.68386319410E+01  0.36114698620E+02  0.50678625985E+02  0.00000000000E+00 0.  1.
</event>
<event>
 6    1  0.4069520E-005  0.9681046E+02  0.7818608E-02  0.1303415E+00
          2   -1    0    0  502    0  0.00000000000E+00  0.00000000000E+00  0.20397438670E+03  0.20397438670E+03  0.00000000000E+00 0. -1.
          1   -1    0    0  501    0 -0.00000000000E+00 -0.00000000000E+00 -0.10634819597E+03  0.10634819597E+03  0.00000000000E+00 0. -1.
          2    1    1    2  501    0  0.22416480814E+02 -0.34616936020E+01 -0.47997770433E+02  0.53087361031E+02  0.00000000000E+00 0. -1.
          1    1    1    2  502    0 -0.33131193129E+02 -0.59150039518E+02  0.26082713934E+02  0.72640973970E+02  0.00000000000E+00 0. -1.
         22    1    1    2    0    0  0.42937640617E+02  0.68969810818E+02  0.12714144978E+03  0.15088215282E+03  0.00000000000E+00 0. -1.
         22    1    1    2    0    0 -0.32222928303E+02 -0.63580776984E+01 -0.76002025506E+01  0.33712094851E+02  0.00000000000E+00 0.  1.
</event>
<event>
 6    1  0.4069520E-005  0.1344184E+03  0.7818608E-02  0.1227371E+00
          2   -1    0    0  502    0  0.00000000000E+00  0.00000000000E+00  0.12150559391E+03  0.12150559391E+03  0.00000000000E+00 0.  1.
          1   -1    0    0  501    0 -0.00000000000E+00 -0.00000000000E+00 -0.37396765694E+03  0.37396765694E+03  0.00000000000E+00 0.  1.
          2    1    1    2  501    0 -0.64701568684E+02  0.97243397864E+02  0.24533186132E+02  0.11935010951E+03  0.00000000000E+00 0.  1.
          1    1    1    2  502    0  0.37331426343E+02  0.77414325181E+01 -0.18065922569E+03  0.18463835191E+03  0.00000000000E+00 0.  1.
         22    1    1    2    0    0 -0.10100760008E+02 -0.11911545056E+01  0.25290317420E+02  0.27258839979E+02  0.00000000000E+00 0. -1.
         22    1    1    2    0    0  0.37470902350E+02 -0.10379367588E+03 -0.12162634089E+03  0.16422594945E+03  0.00000000000E+00 0.  1.
</event>
<event>
 6    1  0.4069520E-005  0.2887661E+03  0.7818608E-02  0.1160651E+00
          2   -1    0    0  502    0  0.00000000000E+00  0.00000000000E+00  0.54482000649E+03  0.54482000649E+03  0.00000000000E+00 0.  1.
          1   -1    0    0  501    0 -0.00000000000E+00 -0.00000000000E+00 -0.70992640349E+03  0.70992640349E+03  0.00000000000E+00 0. -1.
          2    1    1    2  501    0  0.60847893153E+02 -0.70448252831E+02  0.10822056930E+01  0.93094541178E+02  0.00000000000E+00 0.  1.
          1    1    1    2  502    0  0.32183214828E+02  0.84875732508E+02 -0.64798627254E+03  0.65431327259E+03  0.00000000000E+00 0. -1.
         22    1    1    2    0    0 -0.20223417525E+02  0.47287116826E+02  0.86083613083E+02  0.10027684915E+03  0.00000000000E+00 0.  1.
         22    1    1    2    0    0 -0.72807690456E+02 -0.61714596503E+02  0.39571405676E+03  0.40706174707E+03  0.00000000000E+00 0.  1.
</event>
<event>
 6    1  0.4069520E-005  0.4081786E+03  0.7818608E-02  0.1129807E+00
          2   -1    0    0  502    0  0.00000000000E+00  0.00000000000E+00  0.34039726082E+03  0.34039726082E+03  0.00000000000E+00 0.  1.
          1   -1    0    0  501    0 -0.00000000000E+00 -0.00000000000E+00 -0.17390102200E+04  0.17390102200E+04  0.00000000000E+00 0.  1.
          2    1    1    2  501    0 -0.14965799701E+03 -0.33836611331E+02 -0.81872728441E+02  0.17391255273E+03  0.00000000000E+00 0.  1.
          1    1    1    2  502    0  0.58817034577E+02  0.55135756523E+02 -0.15882996848E+04  0.15903443916E+04  0.00000000000E+00 0.  1.
         22    1    1    2    0    0  0.26575557086E+02 -0.27245697297E+02  0.21529444899E+01  0.38121167684E+02  0.00000000000E+00 0. -1.
         22    1    1    2    0    0  0.64265405344E+02  0.59465521050E+01  0.26940650954E+03  0.27702936882E+03  0.00000000000E+00 0.  1.
</event>
<event>
 6    1  0.4069520E-005  0.2527747E+03  0.7818608E-02  0.1215068E+00
          2   -1    0    0  502    0  0.00000000000E+00  0.00000000000E+00  0.18057178467E+03  0.18057178467E+03  0.00000000000E+00 0.  1.
          1   -1    0    0  501    0 -0.00000000000E+00 -0.00000000000E+00 -0.57440420949E+03  0.57440420949E+03  0.00000000000E+00 0.  1.
          2    1    1    2  501    0 -0.21363811131E+01  0.14745197790E+03  0.17429092344E+02  0.14849384893E+03  0.00000000000E+00 0.  1.
          1    1    1    2  502    0 -0.91501277368E+02 -0.10481471434E+03 -0.42233938761E+03  0.44466747849E+03  0.00000000000E+00 0.  1.
         22    1    1    2    0    0  0.22488861546E+02  0.44463257341E+01  0.59465465362E+02  0.63731156249E+02  0.00000000000E+00 0. -1.
         22    1    1    2    0    0  0.71148796936E+02 -0.47083589292E+02 -0.48387594920E+02  0.98083510481E+02  0.00000000000E+00 0. -1.
</event>
<event>
 6    1  0.4069520E-005  0.1053704E+03  0.7818608E-02  0.1271027E+00
          2   -1    0    0  502    0  0.00000000000E+00  0.00000000000E+00  0.19722475890E+03  0.19722475890E+03  0.00000000000E+00 0. -1.
          1   -1    0    0  501    0 -0.00000000000E+00 -0.00000000000E+00 -0.25536912094E+03  0.25536912094E+03  0.00000000000E+00 0. -1.
          2    1    1    2  501    0  0.55683557841E+02  0.32339636593E+02 -0.39735481663E+02  0.75666499932E+02  0.00000000000E+00 0. -1.
          1    1    1    2  502    0  0.24760980876E+02 -0.14386321791E+02 -0.16499950921E+03  0.16746614723E+03  0.00000000000E+00 0. -1.
         22    1    1    2    0    0  0.24237645105E+02 -0.21239286008E+00 -0.46421023065E+01  0.24679093678E+02  0.00000000000E+00 0. -1.
         22    1    1    2    0    0 -0.10468218382E+03 -0.17740921942E+02  0.15123273114E+03  0.18478213899E+03  0.00000000000E+00 0. -1.
</event>
<event>
 6    1  0.4069520E-005  0.8470327E+02  0.7818608E-02  0.1325008E+00
          2   -1    0    0  502    0  0.00000000000E+00  0.00000000000E+00  0.11548757830E+03  0.11548757830E+03  0.00000000000E+00 0. -1.
          1   -1    0    0  501    0 -0.00000000000E+00 -0.00000000000E+00 -0.17379696368E+03  0.17379696368E+03  0.00000000000E+00 0.  1.
          2    1    1    2  501    0 -0.21817143954E+02  0.15936876573E+02 -0.53801598534E+01  0.27548465025E+02  0.00000000000E+00 0. -1.
          1    1    1    2  502    0 -0.19519544580E+02 -0.31364600049E+02 -0.11168291529E+03  0.11763428210E+03  0.00000000000E+00 0.  1.
         22    1    1    2    0    0 -0.31093190241E+02 -0.28815443079E+02  0.28849275479E+01  0.42490458295E+02  0.00000000000E+00 0. -1.
         22    1    1    2    0    0  0.72429878775E+02  0.44243166555E+02  0.55868762212E+02  0.10161133656E+03  0.00000000000E+00 0. -1.
</event>
<event>
 6    1  0.4069520E-005  0.9122942E+02  0.7818608E-02  0.1389564E+00
          2   -1    0    0  502    0  0.00000000000E+00  0.00000000000E+00  0.62085478379E+02  0.62085478379E+02  0.00000000000E+00 0. -1.
          1   -1    0    0  501    0 -0.00000000000E+00 -0.00000000000E+00 -0.56958451618E+03  0.56958451618E+03  0.00000000000E+00 0. -1.
          2    1    1    2  501    0 -0.54218743038E+02  0.10183523503E+02 -0.34613975425E+03  0.35050835328E+03  0.00000000000E+00 0. -1.
          1    1    1    2  502    0  0.50954355226E+02  0.37218168202E+02 -0.12763779501E+03  0.14238309266E+03  0.00000000000E+00 0. -1.
         22    1    1    2    0    0  0.50600040508E+01 -0.28004436930E+02 -0.81957432727E+02  0.86757552455E+02  0.00000000000E+00 0. -1.
         22    1    1    2    0    0 -0.17956162391E+01 -0.19397254776E+02  0.48235944184E+02  0.52020996163E+02  0.00000000000E+00 0. -1.
</event>
<event>
 6    1  0.4069520E-005  0.2512127E+03  0.7818608E-02  0.1172358E+00
          2   -1    0    0  502    0  0.00000000000E+00  0.00000000000E+00  0.96406851268E+02  0.96406851268E+02  0.00000000000E+00 0.  1.
          1   -1    0    0  501    0 -0.00000000000E+00 -0.00000000000E+00 -0.65741197915E+03  0.65741197915E+03  0.00000000000E+00 0. -1.
          2    1    1    2  501    0 -0.12178290897E+03 -0.93415174173E+02 -0.34646910162E+03  0.37894367663E+03  0.00000000000E+00 0.  1.
          1    1    1    2  502    0  0.47712143524E+02 -0.32359959315E+02 -0.16469458817E+03  0.17449333219E+03  0.00000000000E+00 0. -1.
         22    1    1    2    0    0  0.46551607669E+02  0.36357984560E+02  0.39469261487E+02  0.71040677222E+02  0.00000000000E+00 0.  1.
         22    1    1    2    0    0  0.27519157781E+02  0.89417148928E+02 -0.89310699578E+02  0.12934114437E+03  0.00000000000E+00 0.  1.
</event>
<event>
 6    1  0.4069520E-005  0.1297599E+03  0.7818608E-02  0.1290108E+00
          2   -1    0    0  502    0  0.00000000000E+00  0.00000000000E+00  0.36488264306E+03  0.36488264306E+03  0.00000000000E+00 0. -1.
          1   -1    0    0  501    0 -0.00000000000E+00 -0.00000000000E+00 -0.87449730596E+02  0.87449730596E+02  0.00000000000E+00 0. -1.
          2    1    1    2  501    0  0.51984243027E+02 -0.20201763910E+02  0.67930804314E+02  0.87892360094E+02  0.00000000000E+00 0. -1.
          1    1    1    2  502    0 -0.30030187703E+02 -0.15616966373E+01 -0.58603861160E+02  0.65868532796E+02  0.00000000000E+00 0. -1.
         22    1    1    2    0    0  0.32963585053E+02 -0.22683475701E+02  0.18598936308E+03  0.19024505562E+03  0.00000000000E+00 0. -1.
         22    1    1    2    0    0 -0.54917640376E+02  0.44446936248E+02  0.82116606235E+02  0.10832642515E+03  0.00000000000E+00 0.  1.
</event>
<event>
 6    1  0.4069520E-005  0.1087513E+03  0.7818608E-02  0.1330366E+00
          2   -1    0    0  502    0  0.00000000000E+00  0.00000000000E+00  0.25603099310E+03  0.25603099310E+03  0.00000000000E+00 0.  1.
          1   -1    0    0  501    0 -0.00000000000E+00 -0.00000000000E+00 -0.23812040980E+03  0.23812040980E+03  0.00000000000E+00 0. -1.
          2    1    1    2  501    0 -0.24390116031E+02 -0.13921094437E+02  0.57937162906E+02  0.64384699082E+02  0.00000000000E+00 0.  1.
          1    1    1    2  502    0 -0.11233274503E+02 -0.39977372908E+02 -0.20723349250E+03  0.21135301563E+03  0.00000000000E+00 0. -1.
         22    1    1    2    0    0  0.57434226902E+02  0.31703987411E+02  0.20926867418E+02  0.68860489524E+02  0.00000000000E+00 0. -1.
         22    1    1    2    0    0 -0.21810836368E+02  0.22194479934E+02  0.14628004548E+03  0.14955319866E+03  0.00000000000E+00 0.  1.
</event>
<event>
 6    1  0.4069520E-005  0.1343525E+03  0.7818608E-02  0.1268320E+00
          2   -1    0    0  502    0  0.00000000000E+00  0.00000000000E+00  0.22849025849E+03  0.22849025849E+03  0.00000000000E+00 0. -1.
          1   -1    0    0  501    0 -0.00000000000E+00 -0.00000000000E+00 -0.71597836375E+03  0.71597836375E+03  0.00000000000E+00 0. -1.
          2    1    1    2  501    0  0.78042054860E+02  0.88291662489E+02 -0.61710804189E+03  0.62825815980E+03  0.00000000000E+00 0. -1.
          1    1    1    2  502    0 -0.83471170071E+02 -0.12961021933E+03  0.61460390954E+02  0.16596272125E+03  0.00000000000E+00 0. -1.
         22    1    1    2    0    0  0.14127475349E+02  0.49938151639E+02  0.10189945138E+03  0.11435428606E+03  0.00000000000E+00 0. -1.
         22    1    1    2    0    0 -0.86983601375E+01 -0.86195947988E+01 -0.33739905714E+02  0.35893455130E+02  0.00000000000E+00 0. -1.
</event>
<event>
 6    1  0.4069520E-005  0.5604234E+02  0.7818608E-02  0.1425612E+00
          2   -1    0    0  502    0  0.00000000000E+00  0.00000000000E+00  0.86377732336E+02  0.86377732336E+02  0.00000000000E+00 0.  1.
          1   -1    0    0  501    0 -0.00000000000E+00 -0.00000000000E+00 -0.26421082129E+03  0.26421082129E+03  0.00000000000E+00 0. -1.
          2    1    1    2  501    0  0.61221684367E+02 -0.50214652831E+01 -0.67621585115E+02  0.91356381955E+02  0.00000000000E+00 0.  1.
          1    1    1    2  502    0 -0.35660992044E+02  0.16298300348E+02 -0.12458079577E+03  0.13060518988E+03  0.00000000000E+00 0. -1.
         22    1    1    2    0    0  0.17118312293E+02  0.65617953672E+01 -0.47766414300E+02  0.51163699136E+02  0.00000000000E+00 0. -1.
         22    1    1    2    0    0 -0.42679004616E+02 -0.17838630432E+02  0.62135706234E+02  0.77463282657E+02  0.00000000000E+00 0.  1.
</event>
<event>
 6    1  0.4069520E-005  0.1103096E+03  0.7818608E-02  0.1316339E+00
          2   -1    0    0  502    0  0.00000000000E+00  0.00000000000E+00  0.26257750075E+03  0.26257750075E+03  0.00000000000E+00 0. -1.
          1   -1    0    0  501    0 -0.00000000000E+00 -0.00000000000E+00 -0.24374800409E+03  0.24374800409E+03  0.00000000000E+00 0.  1.
          2    1    1    2  501    0 -0.27399447056E+02 -0.20259264238E+02 -0.81533219202E+00  0.34085660520E+02  0.00000000000E+00 0. -1.
          1    1    1    2  502    0 -0.19839597899E+02  0.39342919208E+02 -0.20407980337E+03  0.20878228153E+03  0.00000000000E+00 0.  1.
         22    1    1    2    0    0  0.68849311320E+02  0.12490316743E+02  0.51105000898E+02  0.86648466798E+02  0.00000000000E+00 0. -1.
         22    1    1    2    0    0 -0.21610266364E+02 -0.31573971712E+02  0.17261963133E+03  0.17680909598E+03  0.00000000000E+00 0. -1.
</event>
<event>
 6    1  0.7916607E-005  0.3615312E+02  0.7818608E-02  0.1554328E+00
          2   -1    0    0  502    0  0.00000000000E+00  0.00000000000E+00  0.15672840777E+03  0.15672840777E+03  0.00000000000E+00 0. -1.
          1   -1    0    0  501    0 -0.00000000000E+00 -0.00000000000E+00 -0.58265484371E+03  0.58265484371E+03  0.00000000000E+00 0. -1.
          2    1    1    2  501    0  0.23269274814E+02  0.12464804744E+02 -0.40864127279E+02  0.48648817108E+02  0.00000000000E+00 0. -1.
          1    1    1    2  502    0 -0.12328398566E+02 -0.34200412273E+02 -0.50910044287E+03  0.51039682458E+03  0.00000000000E+00 0. -1.
         22    1    1    2    0    0  0.10842439288E+02  0.18299045292E+01 -0.25576912456E+02  0.27840357237E+02  0.00000000000E+00 0. -1.
         22    1    1    2    0    0 -0.21783315536E+02  0.19905703000E+02  0.14961504667E+03  0.15249725255E+03  0.00000000000E+00 0. -1.
</event>
<event>
 6    1  0.4069520E-005  0.1917164E+03  0.7818608E-02  0.1230516E+00
          2   -1    0    0  502    0  0.00000000000E+00  0.00000000000E+00  0.71581545201E+02  0.71581545201E+02  0.00000000000E+00 0.  1.
          1   -1    0    0  501    0 -0.00000000000E+00 -0.00000000000E+00 -0.10562377376E+04  0.10562377376E+04  0.00000000000E+00 0.  1.
          2    1    1    2  501    0 -0.12074618657E+03 -0.83689555535E+02 -0.59728732327E+03  0.61509001765E+03  0.00000000000E+00 0.  1.
          1    1    1    2  502    0  0.15246480224E+03  0.92350241731E+02 -0.32369157089E+03  0.36952715209E+03  0.00000000000E+00 0.  1.
         22    1    1    2    0    0 -0.22423034437E+02  0.30735769821E+02  0.25136047516E+02  0.45599352019E+02  0.00000000000E+00 0.  1.
         22    1    1    2    0    0 -0.92955812370E+01 -0.39396456017E+02 -0.88813345714E+02  0.97602760996E+02  0.00000000000E+00 0. -1.
</event>
<event>
 6    1  0.4069520E-005  0.3255187E+03  0.7818608E-02  0.1217408E+00
          2   -1    0    0  502    0  0.00000000000E+00  0.00000000000E+00  0.28286493181E+03  0.28286493181E+03  0.00000000000E+00 0.  1.
          1   -1    0    0  501    0 -0.00000000000E+00 -0.00000000000E+00 -0.53625372821E+03  0.53625372821E+03  0.00000000000E+00 0.  1.
          2    1    1    2  501    0  0.42271686463E+02  0.15009199951E+03  0.14979382300E+03  0.21622371101E+03  0.00000000000E+00 0.  1.
          1    1    1    2  502    0 -0.13556447206E+02 -0.21590657609E+02 -0.41836305065E+03  0.41913908897E+03  0.00000000000E+00 0.  1.
         22    1    1    2    0    0 -0.22645708146E+02 -0.12028344025E+03 -0.39124955864E+02  0.12849784538E+03  0.00000000000E+00 0.  1.
         22    1    1    2    0    0 -0.60695311108E+01 -0.82179016561E+01  0.54305387117E+02  0.55258014672E+02  0.00000000000E+00 0.  1.
</event>
<event>
 6    1  0.4069520E-005  0.1380022E+03  0.7818608E-02  0.1247837E+00
          2   -1    0    0  502    0  0.00000000000E+00  0.00000000000E+00  0.31362465382E+03  0.31362465382E+03  0.00000000000E+00 0. -1.
          1   -1    0    0  501    0 -0.00000000000E+00 -0.00000000000E+00 -0.14105735999E+03  0.14105735999E+03  0.00000000000E+00 0.  1.
          2    1    1    2  501    0  0.55791508567E+02  0.39988481691E+01  0.14383974320E+02  0.57754497073E+02  0.00000000000E+00 0. -1.
          1    1    1    2  502    0 -0.31649468486E+02  0.10485276420E+02 -0.10210508845E+03  0.10741079538E+03  0.00000000000E+00 0.  1.
         22    1    1    2    0    0  0.29926467366E+02  0.18627160547E+02  0.19629119061E+03  0.19943118129E+03  0.00000000000E+00 0.  1.
         22    1    1    2    0    0 -0.54068507447E+02 -0.33111285136E+02  0.63997217348E+02  0.90085540067E+02  0.00000000000E+00 0. -1.
</event>
<event>
 6    1  0.4069520E-005  0.1410891E+03  0.7818608E-02  0.1250839E+00
          2   -1    0    0  502    0  0.00000000000E+00  0.00000000000E+00  0.57222879883E+02  0.57222879883E+02  0.00000000000E+00 0.  1.
          1   -1    0    0  501    0 -0.00000000000E+00 -0.00000000000E+00 -0.17869718123E+04  0.17869718123E+04  0.00000000000E+00 0.  1.
          2    1    1    2  501    0  0.25057482688E+02 -0.24799465340E+02 -0.15659225956E+03  0.16051176490E+03  0.00000000000E+00 0.  1.
          1    1    1    2  502    0 -0.13510350272E+03  0.63278251823E+02 -0.14801221303E+04  0.14876217981E+04  0.00000000000E+00 0.  1.
         22    1    1    2    0    0  0.59855169722E+02 -0.67733136635E-01 -0.11459278611E+03  0.12928322613E+03  0.00000000000E+00 0.  1.
         22    1    1    2    0    0  0.50190850309E+02 -0.38411053346E+02  0.21558243525E+02  0.66777903065E+02  0.00000000000E+00 0.  1.
</event>
<event>
 6    1  0.4069520E-005  0.8324384E+02  0.7818608E-02  0.1330631E+00
          2   -1    0    0  502    0  0.00000000000E+00  0.00000000000E+00  0.38645158941E+03  0.38645158941E+03  0.00000000000E+00 0.  1.
          1   -1    0    0  501    0 -0.00000000000E+00 -0.00000000000E+00 -0.67357945340E+02  0.67357945340E+02  0.00000000000E+00 0.  1.
          2    1    1    2  501    0 -0.33007829785E+02  0.14216053329E+02  0.74294589251E+02  0.82530594274E+02  0.00000000000E+00 0.  1.
          1    1    1    2  502    0 -0.25622203666E+02 -0.66217848426E+02 -0.16272107576E+02  0.72842860020E+02  0.00000000000E+00 0.  1.
         22    1    1    2    0    0 -0.10003735725E+02  0.44336963252E+02  0.20353638093E+03  0.20854951306E+03  0.00000000000E+00 0.  1.
         22    1    1    2    0    0  0.68633769176E+02  0.76648318457E+01  0.57534781464E+02  0.89886567387E+02  0.00000000000E+00 0.  1.
</event>
<event>
 6    1  0.4069520E-005  0.2124668E+03  0.7818608E-02  0.1233496E+00
          2   -1    0    0  502    0  0.00000000000E+00  0.00000000000E+00  0.12595649224E+03  0.12595649224E+03  0.00000000000E+00 0.  1.
          1   -1    0    0  501    0 -0.00000000000E+00 -0.00000000000E+00 -0.44954389835E+03  0.44954389835E+03  0.00000000000E+00 0.  1.
          2    1    1    2  501    0  0.10060299906E+01  0.34679415651E+02 -0.10855747816E+03  0.11396666193E+03  0.00000000000E+00 0.  1.
          1    1    1    2  502    0 -0.36473374900E+02 -0.17991991740E+03 -0.19329131007E+03  0.26657646990E+03  0.00000000000E+00 0.  1.
         22    1    1    2    0    0  0.55968425511E+02  0.12878356883E+03 -0.56511964761E+02  0.15136470664E+03  0.00000000000E+00 0.  1.
         22    1    1    2    0    0 -0.20501080602E+02  0.16456932923E+02  0.34773346888E+02  0.43592552126E+02  0.00000000000E+00 0. -1.
</event>
<event>
 6    1  0.4069520E-005  0.5989772E+02  0.7818608E-02  0.1434514E+00
          2   -1    0    0  502    0  0.00000000000E+00  0.00000000000E+00  0.41129899993E+02  0.41129899993E+02  0.00000000000E+00 0.  1.
          1   -1    0    0  501    0 -0.00000000000E+00 -0.00000000000E+00 -0.33934815428E+03  0.33934815428E+03  0.00000000000E+00 0.  1.
          2    1    1    2  501    0 -0.16032616612E+02  0.14775098514E+02 -0.28930968096E+02  0.36226361210E+02  0.00000000000E+00 0.  1.
          1    1    1    2  502    0  0.53472510578E+02 -0.16864569691E+02 -0.16996362332E+03  0.17897306041E+03  0.00000000000E+00 0.  1.
         22    1    1    2    0    0 -0.20869659204E+02  0.31999245926E+02 -0.11958105141E+03  0.12553534271E+03  0.00000000000E+00 0.  1.
         22    1    1    2    0    0 -0.16570234762E+02 -0.29909774748E+02  0.20257388534E+02  0.39743289947E+02  0.00000000000E+00 0.  1.
</event>
<event>
 6    1  0.4069520E-005  0.8067385E+02  0.7818608E-02  0.1341168E+00
          2   -1    0    0  502    0  0.00000000000E+00  0.00000000000E+00  0.24482831754E+02  0.24482831754E+02  0.00000000000E+00 0.  1.
          1   -1    0    0  501    0 -0.00000000000E+00 -0.00000000000E+00 -0.11797079671E+04  0.11797079671E+04  0.00000000000E+00 0.  1.
          2    1    1    2  501    0 -0.38010821074E+02  0.87205891543E+01 -0.14281896000E+03  0.14804771706E+03  0.00000000000E+00 0.  1.
          1    1    1    2  502    0  0.23273283853E+02  0.61447805494E+01 -0.84520649556E+03  0.84554918497E+03  0.00000000000E+00 0.  1.
         22    1    1    2    0    0  0.18911334913E+02 -0.59912073832E+02 -0.37351566016E+02  0.73090592164E+02  0.00000000000E+00 0.  1.
         22    1    1    2    0    0 -0.41737976915E+01  0.45046704128E+02 -0.12984811379E+03  0.13750330467E+03  0.00000000000E+00 0.  1.
</event>
<event>
 6    1  0.4069520E-005  0.6981229E+02  0.7818608E-02  0.1367819E+00
          2   -1    0    0  502    0  0.00000000000E+00  0.00000000000E+00  0.27444502327E+02  0.27444502327E+02  0.00000000000E+00 0.  1.
          1   -1    0    0  501    0 -0.00000000000E+00 -0.00000000000E+00 -0.77437549323E+03  0.77437549323E+03  0.00000000000E+00 0.  1.
          2    1    1    2  501    0  0.10521034018E+02 -0.18267282784E+02 -0.93930167627E+02  0.96266620215E+02  0.00000000000E+00 0.  1.
          1    1    1    2  502    0 -0.55124264576E+02 -0.46626342098E+02 -0.43733686674E+03  0.44325639909E+03  0.00000000000E+00 0.  1.
         22    1    1    2    0    0 -0.44205424772E+01  0.61863196114E+02 -0.27528989614E+02  0.67856035092E+02  0.00000000000E+00 0. -1.
         22    1    1    2    0    0  0.49023773036E+02  0.30304287688E+01 -0.18813496692E+03  0.19444094116E+03  0.00000000000E+00 0.  1.
</event>
<event>
 6    1  0.4069520E-005  0.6772054E+02  0.7818608E-02  0.1412053E+00
          2   -1    0    0  502    0  0.00000000000E+00  0.00000000000E+00  0.21016510377E+03  0.21016510377E+03  0.00000000000E+00 0. -1.
          1   -1    0    0  501    0 -0.00000000000E+00 -0.00000000000E+00 -0.16216653143E+03  0.16216653143E+03  0.00000000000E+00 0. -1.
          2    1    1    2  501    0  0.21160518275E+02  0.49635264193E+02 -0.76807589825E+02  0.93866036669E+02  0.00000000000E+00 0. -1.
          1    1    1    2  502    0 -0.85569843270E+01 -0.37420529586E+02 -0.49955861361E+02  0.63000842055E+02  0.00000000000E+00 0. -1.
         22    1    1    2    0    0  0.33449599601E+01 -0.33200620134E+02  0.18440358555E+03  0.18739837859E+03  0.00000000000E+00 0. -1.
         22    1    1    2    0    0 -0.15948493908E+02  0.20985885527E+02 -0.96415620322E+01  0.28066377888E+02  0.00000000000E+00 0.  1.
</event>
<event>
 6    1  0.4069520E-005  0.1053814E+03  0.7818608E-02  0.1318920E+00
          2   -1    0    0  502    0  0.00000000000E+00  0.00000000000E+00  0.26224041963E+03  0.26224041963E+03  0.00000000000E+00 0.  1.
          1   -1    0    0  501    0 -0.00000000000E+00 -0.00000000000E+00 -0.27609287826E+03  0.27609287826E+03  0.00000000000E+00 0. -1.
          2    1    1    2  501    0  0.21700018243E+02 -0.16913858961E+02  0.78224667924E+02  0.82922060325E+02  0.00000000000E+00 0.  1.
          1    1    1    2  502    0  0.27612502764E+02  0.81659749545E+02 -0.23423987262E+03  0.24959784240E+03  0.00000000000E+00 0. -1.
         22    1    1    2    0    0 -0.16155738487E+02 -0.90361413227E+02  0.13508281916E+03  0.16332042407E+03  0.00000000000E+00 0.  1.
         22    1    1    2    0    0 -0.33156782521E+02  0.25615522644E+02  0.70799269168E+01  0.42492971097E+02  0.00000000000E+00 0.  1.
</event>
<event>
 6    1  0.4069520E-005  0.9180482E+02  0.7818608E-02  0.1300771E+00
          2   -1    0    0  502    0  0.00000000000E+00  0.00000000000E+00  0.24478781080E+03  0.24478781080E+03  0.00000000000E+00 0. -1.
          1   -1    0    0  501    0 -0.00000000000E+00 -0.00000000000E+00 -0.11775046013E+04  0.11775046013E+04  0.00000000000E+00 0.  1.
          2    1    1    2  501    0 -0.36115691522E+02 -0.77552816962E+02  0.49375136407E+02  0.98775941849E+02  0.00000000000E+00 0. -1.
          1    1    1    2  502    0  0.39930302938E+02  0.31339530421E+02 -0.11261403846E+04  0.11272837979E+04  0.00000000000E+00 0.  1.
         22    1    1    2    0    0  0.32958156055E+01  0.80606652660E+02  0.13904984693E+03  0.16075806289E+03  0.00000000000E+00 0. -1.
         22    1    1    2    0    0 -0.71104270208E+01 -0.34393366119E+02  0.49986107565E+01  0.35474609439E+02  0.00000000000E+00 0. -1.
</event>
<event>
 6    1  0.4069520E-005  0.8280744E+02  0.7818608E-02  0.1327586E+00
          2   -1    0    0  502    0  0.00000000000E+00  0.00000000000E+00  0.13964943573E+03  0.13964943573E+03  0.00000000000E+00 0. -1.
          1   -1    0    0  501    0 -0.00000000000E+00 -0.00000000000E+00 -0.21315243291E+03  0.21315243291E+03  0.00000000000E+00 0. -1.
          2    1    1    2  501    0  0.29675301162E+02 -0.13295927614E+02 -0.96531979137E+02  0.10186180926E+03  0.00000000000E+00 0. -1.
          1    1    1    2  502    0 -0.87412935111E+02 -0.43091308760E+02  0.27394640437E+02  0.10123412686E+03  0.00000000000E+00 0. -1.
         22    1    1    2    0    0  0.40956908699E+02 -0.15710185954E+02 -0.46992694692E+02  0.64285236776E+02  0.00000000000E+00 0.  1.
         22    1    1    2    0    0  0.16780725250E+02  0.72097422329E+02  0.42627036211E+02  0.85420695751E+02  0.00000000000E+00 0. -1.
</event>
<event>
 6    1  0.4069520E-005  0.6042310E+02  0.7818608E-02  0.1403293E+00
          2   -1    0    0  502    0  0.00000000000E+00  0.00000000000E+00  0.35056960347E+03  0.35056960347E+03  0.00000000000E+00 0.  1.
          1   -1    0    0  501    0 -0.00000000000E+00 -0.00000000000E+00 -0.71960675098E+02  0.71960675098E+02  0.00000000000E+00 0. -1.
          2    1    1    2  501    0 -0.50176646114E+02 -0.60810423896E+00  0.26947309394E+02  0.56958081864E+02  0.00000000000E+00 0.  1.
          1    1    1    2  502    0  0.31728207289E+02  0.17432847320E+02 -0.35396426498E+02  0.50630922491E+02  0.00000000000E+00 0. -1.
         22    1    1    2    0    0 -0.22017295028E+02  0.16930407732E+02  0.52716773094E+01  0.28269958754E+02  0.00000000000E+00 0.  1.
         22    1    1    2    0    0  0.40465733852E+02 -0.33755150812E+02  0.28178636817E+03  0.28667131546E+03  0.00000000000E+00 0.  1.
</event>
<event>
 6    1  0.4069520E-005  0.6049940E+02  0.7818608E-02  0.1396505E+00
          2   -1    0    0  502    0  0.00000000000E+00  0.00000000000E+00  0.89621443021E+02  0.89621443021E+02  0.00000000000E+00 0.  1.
          1   -1    0    0  501    0 -0.00000000000E+00 -0.00000000000E+00 -0.68776329364E+03  0.68776329364E+03  0.00000000000E+00 0. -1.
          2    1    1    2  501    0 -0.13757241280E+02  0.29892202200E+02 -0.90198444848E+02  0.96013357889E+02  0.00000000000E+00 0.  1.
          1    1    1    2  502    0 -0.21961701157E+02 -0.25480209746E+01 -0.54337647426E+03  0.54382607652E+03  0.00000000000E+00 0. -1.
         22    1    1    2    0    0  0.47447922923E+02 -0.38237579112E+02  0.73956880458E+02  0.95828169204E+02  0.00000000000E+00 0.  1.
         22    1    1    2    0    0 -0.11728980486E+02  0.10893397886E+02 -0.38523811969E+02  0.41717133044E+02  0.00000000000E+00 0. -1.
</event>
<event>
 6    1  0.4069520E-005  0.2751503E+03  0.7818608E-02  0.1144307E+00
          2   -1    0    0  502    0  0.00000000000E+00  0.00000000000E+00  0.46656325624E+03  0.46656325624E+03  0.00000000000E+00 0.  1.
          1   -1    0    0  501    0 -0.00000000000E+00 -0.00000000000E+00 -0.51103837265E+03  0.51103837265E+03  0.00000000000E+00 0.  1.
          2    1    1    2  501    0 -0.97474109025E+02  0.23742319280E+03 -0.25135204685E+03  0.35923366471E+03  0.00000000000E+00 0.  1.
          1    1    1    2  502    0  0.11576978186E+03 -0.17859156619E+03 -0.13378599901E+03  0.25138870985E+03  0.00000000000E+00 0.  1.
         22    1    1    2    0    0  0.41303935290E+01  0.25661082744E+02  0.15482028854E+02  0.30253008706E+02  0.00000000000E+00 0. -1.
         22    1    1    2    0    0 -0.22426066367E+02 -0.84492709356E+02  0.32518090059E+03  0.33672624563E+03  0.00000000000E+00 0.  1.
</event>
<event>
 6    1  0.4069520E-005  0.6173523E+02  0.7818608E-02  0.1438014E+00
          2   -1    0    0  502    0  0.00000000000E+00  0.00000000000E+00  0.78392192118E+02  0.78392192118E+02  0.00000000000E+00 0. -1.
          1   -1    0    0  501    0 -0.00000000000E+00 -0.00000000000E+00 -0.10370777999E+04  0.10370777999E+04  0.00000000000E+00 0. -1.
          2    1    1    2  501    0  0.23818843779E+02  0.60144258941E+01 -0.12497371920E+02  0.27562564154E+02  0.00000000000E+00 0. -1.
          1    1    1    2  502    0 -0.12566043129E+02 -0.19609077858E+02 -0.96278988999E+03  0.96307154128E+03  0.00000000000E+00 0. -1.
         22    1    1    2    0    0 -0.22111593141E+02  0.40465994752E+02 -0.40130098423E+02  0.61129731571E+02  0.00000000000E+00 0.  1.
         22    1    1    2    0    0  0.10858792491E+02 -0.26871342788E+02  0.56731752552E+02  0.63706155002E+02  0.00000000000E+00 0. -1.
</event>
<event>
 6    1  0.4069520E-005  0.1326453E+03  0.7818608E-02  0.1299419E+00
          2   -1    0    0  502    0  0.00000000000E+00  0.00000000000E+00  0.14903229241E+03  0.14903229241E+03  0.00000000000E+00 0.  1.
          1   -1    0    0  501    0 -0.00000000000E+00 -0.00000000000E+00 -0.10140701753E+04  0.10140701753E+04  0.00000000000E+00 0.  1.
          2    1    1    2  501    0 -0.50647409400E+02  0.26811647071E+02  0.17513392164E+01  0.57333163934E+02  0.00000000000E+00 0.  1.
          1    1    1    2  502    0  0.79786759624E+02 -0.98614175280E+02 -0.93243009797E+03  0.94101890001E+03  0.00000000000E+00 0.  1.
         22    1    1    2    0    0 -0.57825164286E+02  0.80395336108E+02  0.74553163563E+01  0.99311335881E+02  0.00000000000E+00 0.  1.
         22    1    1    2    0    0  0.28685814062E+02 -0.85928078983E+01  0.58185559487E+02  0.65439067909E+02  0.00000000000E+00 0. -1.
</event>
<event>
 6    1  0.4069520E-005  0.1396423E+03  0.7818608E-02  0.1272515E+00
          2   -1    0    0  502    0  0.00000000000E+00  0.00000000000E+00  0.37208003634E+03  0.37208003634E+03  0.00000000000E+00 0.  1.
          1   -1    0    0  501    0 -0.00000000000E+00 -0.00000000000E+00 -0.53767023387E+02  0.53767023387E+02  0.00000000000E+00 0.  1.
          2    1    1    2  501    0 -0.12543613878E+02 -0.17455458011E+02 -0.15556001569E+02  0.26533459034E+02  0.00000000000E+00 0.  1.
          1    1    1    2  502    0 -0.34498888920E+02 -0.42410595534E+01 -0.27940621970E+01  0.34870714166E+02  0.00000000000E+00 0.  1.
         22    1    1    2    0    0  0.87362814944E+02  0.19650606863E+02  0.16126201273E+03  0.18445553538E+03  0.00000000000E+00 0.  1.
         22    1    1    2    0    0 -0.40320312146E+02  0.20459107018E+01  0.17540106399E+03  0.17998735115E+03  0.00000000000E+00 0.  1.
</event>
<event>
 6    1  0.4069520E-005  0.7678121E+02  0.7818608E-02  0.1462470E+00
          2   -1    0    0  502    0  0.00000000000E+00  0.00000000000E+00  0.32345903585E+02  0.32345903585E+02  0.00000000000E+00 0. -1.
          1   -1    0    0  501    0 -0.00000000000E+00 -0.00000000000E+00 -0.87538565460E+03  0.87538565460E+03  0.00000000000E+00 0.  1.
          2    1    1    2  501    0 -0.34282787575E+02  0.10975899072E+01 -0.89766637242E+02  0.96096635682E+02  0.00000000000E+00 0. -1.
          1    1    1    2  502    0  0.75071579006E+02 -0.11572058756E+02 -0.61409178080E+03  0.61877166206E+03  0.00000000000E+00 0.  1.
         22    1    1    2    0    0 -0.38935455897E+02 -0.10700182618E+00 -0.16254765450E+03  0.16714580808E+03  0.00000000000E+00 0. -1.
         22    1    1    2    0    0 -0.18533355335E+01  0.10581470675E+02  0.23366321530E+02  0.25717452364E+02  0.00000000000E+00 0. -1.
</event>
<event>
 6    1  0.4069520E-005  0.1673215E+03  0.7818608E-02  0.1299851E+00
          2   -1    0    0  502    0  0.00000000000E+00  0.00000000000E+00  0.71630890555E+02  0.71630890555E+02  0.00000000000E+00 0.  1.
          1   -1    0    0  501    0 -0.00000000000E+00 -0.00000000000E+00 -0.51231501820E+03  0.51231501820E+03  0.00000000000E+00 0.  1.
          2    1    1    2  501    0 -0.11343611713E+02  0.17406473612E+02 -0.87926541676E+02  0.90347880890E+02  0.00000000000E+00 0.  1.
          1    1    1    2  502    0  0.11550513952E+03  0.82164678640E+02 -0.21168139100E+03  0.25475769462E+03  0.00000000000E+00 0.  1.
         22    1    1    2    0    0 -0.95389289666E+02 -0.87649856873E+02 -0.16556739424E+03  0.21022410906E+03  0.00000000000E+00 0.  1.
         22    1    1    2    0    0 -0.87722381439E+01 -0.11921295379E+02  0.24491199266E+02  0.28616224193E+02  0.00000000000E+00 0.  1.
</event>
<event>
 6    1  0.4069520E-005  0.2660706E+03  0.7818608E-02  0.1182228E+00
          2   -1    0    0  502    0  0.00000000000E+00  0.00000000000E+00  0.19741181292E+04  0.19741181292E+04  0.00000000000E+00 0. -1.
          1   -1    0    0  501    0 -0.00000000000E+00 -0.00000000000E+00 -0.25306610909E+03  0.25306610909E+03  0.00000000000E+00 0. -1.
          2    1    1    2  501    0 -0.14421145869E+03  0.39627811598E+02  0.12108141364E+04  0.12200156479E+04  0.00000000000E+00 0. -1.
          1    1    1    2  502    0  0.24625227809E+03 -0.65694256023E+02 -0.17055752437E+03  0.30666885864E+03  0.00000000000E+00 0. -1.
         22    1    1    2    0    0  0.11882911714E+02  0.38386160822E+02  0.88131390692E+02  0.96859914096E+02  0.00000000000E+00 0. -1.
         22    1    1    2    0    0 -0.11392373112E+03 -0.12319716397E+02  0.59266401741E+03  0.60363981765E+03  0.00000000000E+00 0. -1.
</event>
<event>
 6    1  0.4069520E-005  0.1167785E+03  0.7818608E-02  0.1350285E+00
          2   -1    0    0  502    0  0.00000000000E+00  0.00000000000E+00  0.27567880408E+02  0.27567880408E+02  0.00000000000E+00 0. -1.
          1   -1    0    0  501    0 -0.00000000000E+00 -0.00000000000E+00 -0.16042727209E+04  0.16042727209E+04  0.00000000000E+00 0. -1.
          2    1    1    2  501    0 -0.41999060382E+01  0.65808689185E+02 -0.16323675528E+03  0.17605300638E+03  0.00000000000E+00 0. -1.
          1    1    1    2  502    0  0.63969065174E+01 -0.11056390382E+03 -0.11946203650E+04  0.11997429365E+04  0.00000000000E+00 0. -1.
         22    1    1    2    0    0  0.84503885899E+01 -0.15665850961E+02  0.90957056884E+01  0.19988992361E+02  0.00000000000E+00 0. -1.
         22    1    1    2    0    0 -0.10647389069E+02  0.60421065592E+02 -0.22794342585E+03  0.23605566600E+03  0.00000000000E+00 0. -1.
</event>
<event>
 6    1  0.4069520E-005  0.3097354E+03  0.7818608E-02  0.1155284E+00
          2   -1    0    0  502    0  0.00000000000E+00  0.00000000000E+00  0.74824865206E+02  0.74824865206E+02  0.00000000000E+00 0. -1.
          1   -1    0    0  501    0 -0.00000000000E+00 -0.00000000000E+00 -0.14134495256E+04  0.14134495256E+04  0.00000000000E+00 0. -1.
          2    1    1    2  501    0 -0.15712801214E+03  0.71741312693E+02 -0.44917732499E+03  0.48124452976E+03  0.00000000000E+00 0. -1.
          1    1    1    2  502    0  0.27099406825E+03 -0.10868946214E+03 -0.62286579202E+03  0.68790477472E+03  0.00000000000E+00 0. -1.
         22    1    1    2    0    0 -0.12753191275E+03 -0.82756011140E+01 -0.18498098172E+03  0.22483513503E+03  0.00000000000E+00 0.  1.
         22    1    1    2    0    0  0.13665856639E+02  0.45223750557E+02 -0.81600561639E+02  0.94289951278E+02  0.00000000000E+00 0. -1.
</event>
<event>
 6    1  0.4069520E-005  0.1968034E+03  0.7818608E-02  0.1190107E+00
          2   -1    0    0  502    0  0.00000000000E+00  0.00000000000E+00  0.12852531073E+03  0.12852531073E+03  0.00000000000E+00 0.  1.
          1   -1    0    0  501    0 -0.00000000000E+00 -0.00000000000E+00 -0.72920325756E+03  0.72920325756E+03  0.00000000000E+00 0.  1.
          2    1    1    2  501    0 -0.43245049121E+02  0.35449980703E+02 -0.35418365254E+02  0.66191358972E+02  0.00000000000E+00 0.  1.
          1    1    1    2  502    0 -0.11257353496E+02 -0.17497118847E+03 -0.57155535978E+03  0.59784377064E+03  0.00000000000E+00 0.  1.
         22    1    1    2    0    0 -0.21320970625E+02  0.80562346256E+02  0.39293104078E+02  0.92134811287E+02  0.00000000000E+00 0. -1.
         22    1    1    2    0    0  0.75823373242E+02  0.58958861514E+02 -0.32997325878E+02  0.10155862738E+03  0.00000000000E+00 0.  1.
</event>
<event>
 6    1  0.4069520E-005  0.1592928E+03  0.7818608E-02  0.1199543E+00
          2   -1    0    0  502    0  0.00000000000E+00  0.00000000000E+00  0.13399779784E+03  0.13399779784E+03  0.00000000000E+00 0. -1.
          1   -1    0    0  501    0 -0.00000000000E+00 -0.00000000000E+00 -0.47522889334E+03  0.47522889334E+03  0.00000000000E+00 0. -1.
          2    1    1    2  501    0  0.10105037793E+03 -0.26864958837E+02 -0.31770718290E+02  0.10928075510E+03  0.00000000000E+00 0. -1.
          1    1    1    2  502    0  0.44206006375E+02  0.44754654886E+02 -0.29809276058E+03  0.30465791315E+03  0.00000000000E+00 0. -1.
         22    1    1    2    0    0 -0.14748594688E+03  0.10741122380E+02 -0.41573762102E+02  0.15360942007E+03  0.00000000000E+00 0. -1.
         22    1    1    2    0    0  0.22295625761E+01 -0.28630818429E+02  0.30206145467E+02  0.41678602870E+02  0.00000000000E+00 0. -1.
</event>
<event>
 6    1  0.4069520E-005  0.7171668E+02  0.7818608E-02  0.1378675E+00
          2   -1    0    0  502    0  0.00000000000E+00  0.00000000000E+00  0.22215596686E+03  0.22215596686E+03  0.00000000000E+00 0.  1.
          1   -1    0    0  501    0 -0.00000000000E+00 -0.00000000000E+00 -0.23093090058E+03  0.23093090058E+03  0.00000000000E+00 0.  1.
          2    1    1    2  501    0  0.40357403135E+02  0.36146661904E+02 -0.47260315712E+02  0.71894635376E+02  0.00000000000E+00 0.  1.
          1    1    1    2  502    0 -0.78156313789E+02 -0.13111462952E+02 -0.13718041929E+03  0.15842596783E+03  0.00000000000E+00 0.  1.
         22    1    1    2    0    0  0.52245746985E+01  0.12002651569E+02 -0.18573029109E+02  0.22722615072E+02  0.00000000000E+00 0. -1.
         22    1    1    2    0    0  0.32574335955E+02 -0.35037850521E+02  0.19423883040E+03  0.20004364915E+03  0.00000000000E+00 0.  1.
</event>
<event>
 6    1  0.4069520E-005  0.1201604E+03  0.7818608E-02  0.1248983E+00
          2   -1    0    0  502    0  0.00000000000E+00  0.00000000000E+00  0.14311834791E+03  0.14311834791E+03  0.00000000000E+00 0.  1.
          1   -1    0    0  501    0 -0.00000000000E+00 -0.00000000000E+00 -0.10850629481E+04  0.10850629481E+04  0.00000000000E+00 0. -1.
          2    1    1    2  501    0  0.32301160186E+02  0.75660120814E+02 -0.95798145815E+01  0.82822651964E+02  0.00000000000E+00 0.  1.
          1    1    1    2  502    0 -0.25290749421E+02 -0.13420492119E+02 -0.99265880879E+03  0.99307161991E+03  0.00000000000E+00 0. -1.
         22    1    1    2    0    0 -0.11450395603E+02 -0.98347050642E+02  0.26178049345E+02  0.10241359381E+03  0.00000000000E+00 0. -1.
         22    1    1    2    0    0  0.44399848383E+01  0.36107421947E+02  0.34115973808E+02  0.49873430340E+02  0.00000000000E+00 0.  1.
</event>
<event>
 6    1  0.4069520E-005  0.1378923E+03  0.7818608E-02  0.1297963E+00
          2   -1    0    0  502    0  0.00000000000E+00  0.00000000000E+00  0.56615120414E+02  0.56615120414E+02  0.00000000000E+00 0.  1.
          1   -1    0    0  501    0 -0.00000000000E+00 -0.00000000000E+00 -0.57610793269E+03  0.57610793269E+03  0.00000000000E+00 0.  1.
          2    1    1    2  501    0 -0.23127443684E+02  0.58594473011E+02 -0.93206610916E+02  0.11249739213E+03  0.00000000000E+00 0.  1.
          1    1    1    2  502    0  0.75863483496E+02 -0.90970569122E+01 -0.34765648643E+03  0.35595372892E+03  0.00000000000E+00 0.  1.
         22    1    1    2    0    0  0.25946858778E+02 -0.87491226661E+01  0.18308086292E+02  0.32938923048E+02  0.00000000000E+00 0.  1.
         22    1    1    2    0    0 -0.78682898590E+02 -0.40748293432E+02 -0.96937801218E+02  0.13133300900E+03  0.00000000000E+00 0.  1.
</event>
<event>
 6    1  0.4069520E-005  0.1901734E+03  0.7818608E-02  0.1274934E+00
          2   -1    0    0  502    0  0.00000000000E+00  0.00000000000E+00  0.20843460938E+03  0.20843460938E+03  0.00000000000E+00 0.  1.
          1   -1    0    0  501    0 -0.00000000000E+00 -0.00000000000E+00 -0.17743582153E+04  0.17743582153E+04  0.00000000000E+00 0.  1.
          2    1    1    2  501    0  0.26455400501E+02 -0.46378954333E+02 -0.11797081657E+02  0.54681502872E+02  0.00000000000E+00 0.  1.
          1    1    1    2  502    0  0.40209320473E+02  0.10513531718E+03 -0.17088318940E+04  0.17125351577E+04  0.00000000000E+00 0.  1.
         22    1    1    2    0    0 -0.80855660471E+02 -0.66377336961E+02  0.16578107107E+03  0.19602793734E+03  0.00000000000E+00 0.  1.
         22    1    1    2    0    0  0.14190939497E+02  0.76209741129E+01 -0.11075701344E+02  0.19548226786E+02  0.00000000000E+00 0.  1.
</event>
<event>
 6    1  0.4069520E-005  0.3087203E+03  0.7818608E-02  0.1215185E+00
          2   -1    0    0  502    0  0.00000000000E+00  0.00000000000E+00  0.18429107771E+03  0.18429107771E+03  0.00000000000E+00 0.  1.
          1   -1    0    0  501    0 -0.00000000000E+00 -0.00000000000E+00 -0.78943163149E+03  0.78943163149E+03  0.00000000000E+00 0. -1.
          2    1    1    2  501    0  0.71781757096E+01  0.24674186256E+02  0.17828335867E+02  0.31276048883E+02  0.00000000000E+00 0.  1.
          1    1    1    2  502    0 -0.11075908260E+02 -0.29559026163E+03 -0.56599533468E+03  0.63862899824E+03  0.00000000000E+00 0. -1.
         22    1    1    2    0    0 -0.36158746150E+01 -0.12020460437E+02  0.59188958991E+01  0.13878016681E+02  0.00000000000E+00 0. -1.
         22    1    1    2    0    0  0.75136071653E+01  0.28293653581E+03 -0.62892450868E+02  0.28993964539E+03  0.00000000000E+00 0.  1.
</event>
<event>
 6    1  0.6310791E-005  0.5541161E+02  0.7818608E-02  0.1493312E+00
          2   -1    0    0  502    0  0.00000000000E+00  0.00000000000E+00  0.66503224104E+02  0.66503224104E+02  0.00000000000E+00 0. -1.
          1   -1    0    0  501    0 -0.00000000000E+00 -0.00000000000E+00 -0.23102004852E+04  0.23102004852E+04  0.00000000000E+00 0. -1.
          2    1    1    2  501    0  0.30531704054E+02  0.13818842022E+02 -0.37491833521E+03  0.37641320836E+03  0.00000000000E+00 0. -1.
          1    1    1    2  502    0 -0.52349571722E+02  0.55872007671E+01 -0.18707933330E+04  0.18715339669E+04  0.00000000000E+00 0. -1.
         22    1    1    2    0    0  0.73635464093E+01 -0.79210376868E+01 -0.61587249772E+02  0.62529624885E+02  0.00000000000E+00 0. -1.
         22    1    1    2    0    0  0.14454321259E+02 -0.11485005102E+02  0.63601656860E+02  0.66226909188E+02  0.00000000000E+00 0. -1.
</event>
<event>
 6    1  0.4069520E-005  0.8110678E+02  0.7818608E-02  0.1332653E+00
          2   -1    0    0  502    0  0.00000000000E+00  0.00000000000E+00  0.28617136640E+02  0.28617136640E+02  0.00000000000E+00 0. -1.
          1   -1    0    0  501    0 -0.00000000000E+00 -0.00000000000E+00 -0.66267144440E+03  0.66267144440E+03  0.00000000000E+00 0.  1.
          2    1    1    2  501    0  0.42539006364E+01  0.48608964574E+02 -0.53417248883E+02  0.72348666787E+02  0.00000000000E+00 0. -1.
          1    1    1    2  502    0  0.14188696404E+02 -0.27392338637E+02 -0.37996774890E+03  0.38121798164E+03  0.00000000000E+00 0.  1.
         22    1    1    2    0    0 -0.30398161709E+02 -0.49478916623E+02 -0.19865526520E+03  0.20696890060E+03  0.00000000000E+00 0.  1.
         22    1    1    2    0    0  0.11955564669E+02  0.28262290685E+02 -0.20140447764E+01  0.30753032008E+02  0.00000000000E+00 0. -1.
</event>
<event>
 6    1  0.4069520E-005  0.5705183E+02  0.7818608E-02  0.1423386E+00
          2   -1    0    0  502    0  0.00000000000E+00  0.00000000000E+00  0.24991936952E+03  0.24991936952E+03  0.00000000000E+00 0. -1.
          1   -1    0    0  501    0 -0.00000000000E+00 -0.00000000000E+00 -0.57620390690E+02  0.57620390690E+02  0.00000000000E+00 0. -1.
          2    1    1    2  501    0 -0.18643774042E+02 -0.26599070709E+02 -0.94384991030E+01  0.33825820588E+02  0.00000000000E+00 0. -1.
          1    1    1    2  502    0  0.18586216952E+02  0.11102594041E+02 -0.14258074679E+02  0.25923112247E+02  0.00000000000E+00 0. -1.
         22    1    1    2    0    0 -0.36602828931E+02 -0.11292715459E+02  0.14045130823E+02  0.40798997635E+02  0.00000000000E+00 0. -1.
         22    1    1    2    0    0  0.36660386021E+02  0.26789192127E+02  0.20195042179E+03  0.20699182974E+03  0.00000000000E+00 0. -1.
</event>
<event>
 6    1  0.4069520E-005  0.2626389E+03  0.7818608E-02  0.1116955E+00
          2   -1    0    0  502    0  0.00000000000E+00  0.00000000000E+00  0.87793596472E+03  0.87793596472E+03  0.00000000000E+00 0.  1.
          1   -1    0    0  501    0 -0.00000000000E+00 -0.00000000000E+00 -0.24587522495E+03  0.24587522495E+03  0.00000000000E+00 0.  1.
          2    1    1    2  501    0  0.73276624501E+02  0.17610563475E+03  0.10558673738E+02  0.19103440496E+03  0.00000000000E+00 0.  1.
          1    1    1    2  502    0 -0.29523412032E+03 -0.17869267965E+03  0.11105696143E+03  0.36252987221E+03  0.00000000000E+00 0.  1.
         22    1    1    2    0    0  0.19531150182E+03 -0.22864511042E+02  0.49027079730E+03  0.52823746866E+03  0.00000000000E+00 0.  1.
         22    1    1    2    0    0  0.26645994001E+02  0.25451555950E+02  0.20174307300E+02  0.42009443839E+02  0.00000000000E+00 0. -1.
</event>
<event>
 6    1  0.4069520E-005  0.7026179E+02  0.7818608E-02  0.1378168E+00
          2   -1    0    0  502    0  0.00000000000E+00  0.00000000000E+00  0.23537524412E+03  0.23537524412E+03  0.00000000000E+00 0.  1.
          1   -1    0    0  501    0 -0.00000000000E+00 -0.00000000000E+00 -0.41621246796E+03  0.41621246796E+03  0.00000000000E+00 0. -1.
          2    1    1    2  501    0  0.30809224703E+01  0.34131377516E+02  0.52258953518E+02  0.62493529562E+02  0.00000000000E+00 0.  1.
          1    1    1    2  502    0 -0.17509064410E+02 -0.24467443606E+02 -0.38780621857E+03  0.38897157518E+03  0.00000000000E+00 0. -1.
         22    1    1    2    0    0 -0.14103776106E+02 -0.45285498034E+02  0.14619351587E+03  0.15369527291E+03  0.00000000000E+00 0.  1.
         22    1    1    2    0    0  0.28531918046E+02  0.35621564124E+02  0.85165253471E+01  0.46427334427E+02  0.00000000000E+00 0.  1.
</event>
<event>
 6    1  0.4069520E-005  0.2349901E+03  0.7818608E-02  0.1176862E+00
          2   -1    0    0  502    0  0.00000000000E+00  0.00000000000E+00  0.35950289269E+03  0.35950289269E+03  0.00000000000E+00 0.  1.
          1   -1    0    0  501    0 -0.00000000000E+00 -0.00000000000E+00 -0.12176596304E+04  0.12176596304E+04  0.00000000000E+00 0.  1.
          2    1    1    2  501    0 -0.46810529400E+02 -0.13301693131E+02 -0.25665959359E+03  0.26123228684E+03  0.00000000000E+00 0.  1.
          1    1    1    2  502    0  0.66094601620E+02  0.90446895438E+02 -0.93995771752E+03  0.94660955414E+03  0.00000000000E+00 0.  1.
         22    1    1    2    0    0  0.24643128155E+02 -0.61026380697E+02  0.30443065692E+03  0.31146352560E+03  0.00000000000E+00 0.  1.
         22    1    1    2    0    0 -0.43927200376E+02 -0.16118821610E+02  0.34029916482E+02  0.57857156504E+02  0.00000000000E+00 0.  1.
</event>
<event>
 6    1  0.4069520E-005  0.1737308E+03  0.7818608E-02  0.1271256E+00
          2   -1    0    0  502    0  0.00000000000E+00  0.00000000000E+00  0.80392465347E+02  0.80392465347E+02  0.00000000000E+00 0.  1.
          1   -1    0    0  501    0 -0.00000000000E+00 -0.00000000000E+00 -0.10231526813E+04  0.10231526813E+04  0.00000000000E+00 0. -1.
          2    1    1    2  501    0 -0.46746416949E+02 -0.56084580687E+02 -0.18328396038E+02  0.75277073467E+02  0.00000000000E+00 0.  1.
          1    1    1    2  502    0 -0.48047076762E+02  0.31138920830E+02 -0.84980131609E+03  0.85172790890E+03  0.00000000000E+00 0. -1.
         22    1    1    2    0    0 -0.26032266844E+01  0.22527480592E+02  0.27331589033E+02  0.35514503095E+02  0.00000000000E+00 0. -1.
         22    1    1    2    0    0  0.97396720395E+02  0.24181792662E+01 -0.10196209289E+03  0.14102566122E+03  0.00000000000E+00 0. -1.
</event>
<event>
 6    1  0.4069520E-005  0.1980517E+03  0.7818608E-02  0.1266940E+00
          2   -1    0    0  502    0  0.00000000000E+00  0.00000000000E+00  0.74061945032E+02  0.74061945032E+02  0.00000000000E+00 0.  1.
          1   -1    0    0  501    0 -0.00000000000E+00 -0.00000000000E+00 -0.55771680199E+03  0.55771680199E+03  0.00000000000E+00 0.  1.
          2    1    1    2  501    0  0.59417287100E+02 -0.49566118535E+02 -0.18217245384E+03  0.19792427100E+03  0.00000000000E+00 0.  1.
          1    1    1    2  502    0 -0.32318150972E+02  0.14785861650E+03 -0.17230873581E+03  0.22934021407E+03  0.00000000000E+00 0.  1.
         22    1    1    2    0    0 -0.37218108161E+02 -0.11150397924E+03 -0.14138761845E+03  0.18387164983E+03  0.00000000000E+00 0.  1.
         22    1    1    2    0    0  0.10118972034E+02  0.13211481283E+02  0.12213951136E+02  0.20642612119E+02  0.00000000000E+00 0.  1.
</event>
<event>
 6    1  0.4069520E-005  0.1009555E+03  0.7818608E-02  0.1319118E+00
          2   -1    0    0  502    0  0.00000000000E+00  0.00000000000E+00  0.11616405053E+03  0.11616405053E+03  0.00000000000E+00 0.  1.
          1   -1    0    0  501    0 -0.00000000000E+00 -0.00000000000E+00 -0.68767565318E+03  0.68767565318E+03  0.00000000000E+00 0. -1.
          2    1    1    2  501    0  0.26992379030E+02  0.18226093514E+02 -0.16835250268E+01  0.32613084292E+02  0.00000000000E+00 0.  1.
          1    1    1    2  502    0  0.19464964229E+02 -0.65119254422E+01 -0.62856808092E+03  0.62890311046E+03  0.00000000000E+00 0. -1.
         22    1    1    2    0    0 -0.47141089397E+02  0.30758198989E+02  0.77585112620E+02  0.95853006290E+02  0.00000000000E+00 0.  1.
         22    1    1    2    0    0  0.68374613752E+00 -0.42472367061E+02 -0.18845109326E+02  0.46470502666E+02  0.00000000000E+00 0.  1.
</event>
<event>
 6    1  0.4069520E-005  0.2139702E+03  0.7818608E-02  0.1216147E+00
          2   -1    0    0  502    0  0.00000000000E+00  0.00000000000E+00  0.64549590052E+03  0.64549590052E+03  0.00000000000E+00 0. -1.
          1   -1    0    0  501    0 -0.00000000000E+00 -0.00000000000E+00 -0.22367322003E+03  0.22367322003E+03  0.00000000000E+00 0.  1.
          2    1    1    2  501    0  0.12355819559E+02  0.45365547745E+02  0.17606908880E+02  0.50206597569E+02  0.00000000000E+00 0. -1.
          1    1    1    2  502    0 -0.70096900582E+01  0.27126744374E+02 -0.19794014705E+03  0.19991322574E+03  0.00000000000E+00 0.  1.
         22    1    1    2    0    0  0.22121762500E+02  0.26563772386E+02  0.84713299713E+02  0.91495079254E+02  0.00000000000E+00 0. -1.
         22    1    1    2    0    0 -0.27467892000E+02 -0.99056064505E+02  0.51744261895E+03  0.52755421798E+03  0.00000000000E+00 0. -1.
</event>
<event>
 6    1  0.4069520E-005  0.5537456E+03  0.7818608E-02  0.1101138E+00
          2   -1    0    0  502    0  0.00000000000E+00  0.00000000000E+00  0.77171060533E+03  0.77171060533E+03  0.00000000000E+00 0.  1.
          1   -1    0    0  501    0 -0.00000000000E+00 -0.00000000000E+00 -0.18478146871E+04  0.18478146871E+04  0.00000000000E+00 0.  1.
          2    1    1    2  501    0  0.13618276061E+03  0.25950523666E+03  0.56721237140E+03  0.63845014403E+03  0.00000000000E+00 0.  1.
          1    1    1    2  502    0 -0.30162625695E+03 -0.22935010406E+03 -0.17154764136E+04  0.17568264555E+04  0.00000000000E+00 0.  1.
         22    1    1    2    0    0 -0.42360663432E+01  0.31126607545E+02  0.16306578404E+02  0.35393706426E+02  0.00000000000E+00 0. -1.
         22    1    1    2    0    0  0.16967956268E+03 -0.61281740150E+02  0.55853381966E+02  0.18885498655E+03  0.00000000000E+00 0. -1.
</event>
<event>
 6    1  0.4069520E-005  0.2253782E+03  0.7818608E-02  0.1202940E+00
          2   -1    0    0  502    0  0.00000000000E+00  0.00000000000E+00  0.23032767350E+03  0.23032767350E+03  0.00000000000E+00 0.  1.
          1   -1    0    0  501    0 -0.00000000000E+00 -0.00000000000E+00 -0.14587913450E+04  0.14587913450E+04  0.00000000000E+00 0.  1.
          2    1    1    2  501    0  0.30137102231E+02  0.66053969220E+02 -0.70080507734E+01  0.72941651724E+02  0.00000000000E+00 0.  1.
          1    1    1    2  502    0  0.13016334851E+03 -0.10489928859E+03 -0.13569396635E+04  0.13671984524E+04  0.00000000000E+00 0.  1.
         22    1    1    2    0    0 -0.28131473465E+02 -0.31079232884E+02  0.78444127493E+02  0.88942563793E+02  0.00000000000E+00 0.  1.
         22    1    1    2    0    0 -0.13216897728E+03  0.69924552254E+02  0.57039915249E+02  0.16003635054E+03  0.00000000000E+00 0.  1.
</event>
<event>
 6    1  0.4069520E-005  0.7714778E+02  0.7818608E-02  0.1370611E+00
          2   -1    0    0  502    0  0.00000000000E+00  0.00000000000E+00  0.44704744885E+03  0.44704744885E+03  0.00000000000E+00 0.  1.
          1   -1    0    0  501    0 -0.00000000000E+00 -0.00000000000E+00 -0.26471818572E+03  0.26471818572E+03  0.00000000000E+00 0.  1.
          2    1    1    2  501    0  0.33197578483E+02 -0.97358005634E+01  0.58378312651E+02  0.67859357628E+02  0.00000000000E+00 0.  1.
          1    1    1    2  502    0 -0.42373129843E+02  0.57655729238E+02 -0.24368085024E+03  0.25396854534E+03  0.00000000000E+00 0.  1.
         22    1    1    2    0    0  0.52606387360E+02 -0.54180455593E+02  0.15012590234E+03  0.16804981497E+03  0.00000000000E+00 0.  1.
         22    1    1    2    0    0 -0.43430835999E+02  0.62605269184E+01  0.21750589838E+03  0.22188791663E+03  0.00000000000E+00 0.  1.
</event>
<event>
 6    1  0.4069520E-005  0.1324024E+03  0.7818608E-02  0.1274622E+00
          2   -1    0    0  502    0  0.00000000000E+00  0.00000000000E+00  0.16245717608E+03  0.16245717608E+03  0.00000000000E+00 0.  1.
          1   -1    0    0  501    0 -0.00000000000E+00 -0.00000000000E+00 -0.28345089680E+03  0.28345089680E+03  0.00000000000E+00 0. -1.
          2    1    1    2  501    0 -0.60198305369E+02  0.11975358901E+02 -0.13896274479E+02  0.62931324747E+02  0.00000000000E+00 0.  1.
          1    1    1    2  502    0  0.58738012509E+02  0.75062370030E+02 -0.18577394138E+03  0.20879767912E+03  0.00000000000E+00 0. -1.
         22    1    1    2    0    0 -0.45399609871E+02 -0.76560031610E+02  0.88659693789E+01  0.89449250581E+02  0.00000000000E+00 0.  1.
         22    1    1    2    0    0  0.46859902730E+02 -0.10477697321E+02  0.69810525764E+02  0.84729818437E+02  0.00000000000E+00 0.  1.
</event>
<event>
 6    1  0.4069520E-005  0.1073455E+03  0.7818608E-02  0.1267759E+00
          2   -1    0    0  502    0  0.00000000000E+00  0.00000000000E+00  0.66517801827E+02  0.66517801827E+02  0.00000000000E+00 0.  1.
          1   -1    0    0  501    0 -0.00000000000E+00 -0.00000000000E+00 -0.12379948531E+04  0.12379948531E+04  0.00000000000E+00 0. -1.
          2    1    1    2  501    0 -0.38799618221E+02 -0.59956549714E+02 -0.32676659178E+02  0.78536375539E+02  0.00000000000E+00 0.  1.
          1    1    1    2  502    0 -0.45039110521E+02  0.23527050476E+02 -0.10409490737E+04  0.10421885711E+04  0.00000000000E+00 0. -1.
         22    1    1    2    0    0 -0.90330452953E+01 -0.29125300176E+02  0.44978172244E+01  0.30823844300E+02  0.00000000000E+00 0. -1.
         22    1    1    2    0    0  0.92871774037E+02  0.65554799414E+02 -0.10234913560E+03  0.15296386403E+03  0.00000000000E+00 0. -1.
</event>
<event>
 6    1  0.4069520E-005  0.1851388E+03  0.7818608E-02  0.1243038E+00
          2   -1    0    0  502    0  0.00000000000E+00  0.00000000000E+00  0.64603998882E+03  0.64603998882E+03  0.00000000000E+00 0.  1.
          1   -1    0    0  501    0 -0.00000000000E+00 -0.00000000000E+00 -0.24766348014E+03  0.24766348014E+03  0.00000000000E+00 0.  1.
          2    1    1    2  501    0  0.31855884910E+02  0.50762242067E+02  0.38028197947E+02  0.70977084064E+02  0.00000000000E+00 0.  1.
          1    1    1    2  502    0 -0.21049420858E+02 -0.13030890527E+03 -0.20236196553E+03  0.24160681697E+03  0.00000000000E+00 0.  1.
         22    1    1    2    0    0  0.46420412332E+00  0.11025928417E+03  0.38752079289E+03  0.40290158867E+03  0.00000000000E+00 0.  1.
         22    1    1    2    0    0 -0.11270668176E+02 -0.30712620967E+02  0.17518948337E+03  0.17821797926E+03  0.00000000000E+00 0.  1.
</event>
<event>
 6    1  0.4069520E-005  0.3393483E+03  0.7818608E-02  0.1155150E+00
          2   -1    0    0  502    0  0.00000000000E+00  0.00000000000E+00  0.36254694748E+02  0.36254694748E+02  0.00000000000E+00 0. -1.
          1   -1    0    0  501    0 -0.00000000000E+00 -0.00000000000E+00 -0.35940373797E+04  0.35940373797E+04  0.00000000000E+00 0.  1.
          2    1    1    2  501    0  0.15770069944E+02 -0.43429927564E+02 -0.78909411382E+03  0.79044568073E+03  0.00000000000E+00 0. -1.
          1    1    1    2  502    0 -0.25575065714E+03 -0.11536456947E+02 -0.21118132799E+04  0.21272745046E+04  0.00000000000E+00 0.  1.
         22    1    1    2    0    0  0.21284598430E+03  0.31251990657E+02 -0.63491525236E+03  0.67037114917E+03  0.00000000000E+00 0. -1.
         22    1    1    2    0    0  0.27134602900E+02  0.23714393853E+02 -0.21960038847E+02  0.42200740000E+02  0.00000000000E+00 0.  1.
</event>
<event>
 6    1  0.4069520E-005  0.1263389E+03  0.7818608E-02  0.1300248E+00
          2   -1    0    0  502    0  0.00000000000E+00  0.00000000000E+00  0.82476785298E+02  0.82476785298E+02  0.00000000000E+00 0. -1.
          1   -1    0    0  501    0 -0.00000000000E+00 -0.00000000000E+00 -0.18432399708E+03  0.18432399708E+03  0.00000000000E+00 0. -1.
          2    1    1    2  501    0  0.16483370088E+02  0.43397794603E+02  0.16358021010E+02  0.49220472542E+02  0.00000000000E+00 0. -1.
          1    1    1    2  502    0  0.23873446595E+02 -0.35507618859E+02 -0.64361674311E+02  0.77286205558E+02  0.00000000000E+00 0. -1.
         22    1    1    2    0    0  0.29207631105E+02 -0.17659482508E+02  0.19027987934E+02  0.39076941564E+02  0.00000000000E+00 0. -1.
         22    1    1    2    0    0 -0.69564447788E+02  0.97693067642E+01 -0.72871546412E+02  0.10121716271E+03  0.00000000000E+00 0. -1.
</event>
<event>
 6    1  0.4069520E-005  0.5999570E+02  0.7818608E-02  0.1418416E+00
          2   -1    0    0  502    0  0.00000000000E+00  0.00000000000E+00  0.13711494129E+03  0.13711494129E+03  0.00000000000E+00 0. -1.
          1   -1    0    0  501    0 -0.00000000000E+00 -0.00000000000E+00 -0.14315685493E+03  0.14315685493E+03  0.00000000000E+00 0.  1.
          2    1    1    2  501    0 -0.12299600708E+02 -0.18101005840E+02 -0.11212273508E+02  0.24589462524E+02  0.00000000000E+00 0. -1.
          1    1    1    2  502    0  0.21145255451E+02  0.44331284092E+02 -0.88122119920E+02  0.10088554206E+03  0.00000000000E+00 0.  1.
         22    1    1    2    0    0 -0.52095469548E+02 -0.30753015474E+02  0.10669628717E+02  0.61429039429E+02  0.00000000000E+00 0. -1.
         22    1    1    2    0    0  0.43249814805E+02  0.45227372220E+01  0.82622851071E+02  0.93367752205E+02  0.00000000000E+00 0. -1.
</event>
<event>
 6    1  0.4069520E-005  0.1112392E+03  0.7818608E-02  0.1260831E+00
          2   -1    0    0  502    0  0.00000000000E+00  0.00000000000E+00  0.59052740758E+03  0.59052740758E+03  0.00000000000E+00 0.  1.
          1   -1    0    0  501    0 -0.00000000000E+00 -0.00000000000E+00 -0.15843473328E+03  0.15843473328E+03  0.00000000000E+00 0.  1.
          2    1    1    2  501    0 -0.30549004377E+02 -0.11498282010E+03  0.19430360620E+03  0.22783367172E+03  0.00000000000E+00 0.  1.
          1    1    1    2  502    0  0.13520724547E+02  0.53257605101E+02 -0.12322848953E+03  0.13492384194E+03  0.00000000000E+00 0.  1.
         22    1    1    2    0    0 -0.21606073632E+02 -0.23532137508E+02  0.36733740495E+02  0.48682148723E+02  0.00000000000E+00 0.  1.
         22    1    1    2    0    0  0.38634353463E+02  0.85257352506E+02  0.32428381714E+03  0.33752247848E+03  0.00000000000E+00 0.  1.
</event>
<event>
 6    1  0.4069520E-005  0.7429599E+02  0.7818608E-02  0.1428278E+00
          2   -1    0    0  502    0  0.00000000000E+00  0.00000000000E+00  0.28366665757E+02  0.28366665757E+02  0.00000000000E+00 0. -1.
          1   -1    0    0  501    0 -0.00000000000E+00 -0.00000000000E+00 -0.70905891271E+03  0.70905891271E+03  0.00000000000E+00 0. -1.
          2    1    1    2  501    0  0.31770357086E+01  0.45945875280E+02 -0.13877054636E+03  0.14621347937E+03  0.00000000000E+00 0. -1.
          1    1    1    2  502    0  0.14355499622E+02 -0.59119682895E+02 -0.37047877220E+03  0.37544072492E+03  0.00000000000E+00 0. -1.
         22    1    1    2    0    0  0.28594518760E+01 -0.19481246298E+02  0.15403868393E+02  0.24999491672E+02  0.00000000000E+00 0. -1.
         22    1    1    2    0    0 -0.20391987206E+02  0.32655053913E+02 -0.18684679678E+03  0.19077188250E+03  0.00000000000E+00 0. -1.
</event>
<event>
 6    1  0.4069520E-005  0.1176557E+03  0.7818608E-02  0.1251986E+00
          2   -1    0    0  502    0  0.00000000000E+00  0.00000000000E+00  0.45713623206E+03  0.45713623206E+03  0.00000000000E+00 0.  1.
          1   -1    0    0  501    0 -0.00000000000E+00 -0.00000000000E+00 -0.11639593589E+03  0.11639593589E+03  0.00000000000E+00 0.  1.
          2    1    1    2  501    0 -0.78917724529E+02 -0.65859577777E+01  0.11982707993E+03  0.14363116364E+03  0.00000000000E+00 0.  1.
          1    1    1    2  502    0 -0.11588423710E+02  0.22632700150E+02 -0.84310174254E+02  0.88060979798E+02  0.00000000000E+00 0.  1.
         22    1    1    2    0    0 -0.18461426782E+02 -0.26130155478E+02  0.23761063244E+02  0.39852194803E+02  0.00000000000E+00 0.  1.
         22    1    1    2    0    0  0.10896757502E+03  0.10083413106E+02  0.28146232726E+03  0.30198782971E+03  0.00000000000E+00 0.  1.
</event>
<event>
 6    1  0.4069520E-005  0.2399679E+03  0.7818608E-02  0.1255653E+00
          2   -1    0    0  502    0  0.00000000000E+00  0.00000000000E+00  0.16049482260E+03  0.16049482260E+03  0.00000000000E+00 0. -1.
          1   -1    0    0  501    0 -0.00000000000E+00 -0.00000000000E+00 -0.20738299195E+03  0.20738299195E+03  0.00000000000E+00 0. -1.
          2    1    1    2  501    0  0.34195400031E+02 -0.12680905355E+03 -0.69045058659E+01  0.13152008837E+03  0.00000000000E+00 0. -1.
          1    1    1    2  502    0 -0.50674646284E+02  0.19133920235E+02 -0.42704009369E+02  0.68975786301E+02  0.00000000000E+00 0. -1.
         22    1    1    2    0    0  0.61551403640E+01  0.10222615096E+03 -0.49589210419E+02  0.11378559436E+03  0.00000000000E+00 0. -1.
         22    1    1    2    0    0  0.10324105890E+02  0.54489823478E+01  0.52309556312E+02  0.53596345516E+02  0.00000000000E+00 0. -1.
</event>
<event>
 6    1  0.4069520E-005  0.1049440E+03  0.7818608E-02  0.1277135E+00
          2   -1    0    0  502    0  0.00000000000E+00  0.00000000000E+00  0.25247043121E+03  0.25247043121E+03  0.00000000000E+00 0. -1.
          1   -1    0    0  501    0 -0.00000000000E+00 -0.00000000000E+00 -0.14707513201E+04  0.14707513201E+04  0.00000000000E+00 0.  1.
          2    1    1    2  501    0 -0.66492440705E+02 -0.83541894593E+01  0.59502883014E+02  0.89619363083E+02  0.00000000000E+00 0. -1.
          1    1    1    2  502    0  0.47116618335E+02 -0.93772423948E+02 -0.14152945199E+04  0.14191799820E+04  0.00000000000E+00 0.  1.
         22    1    1    2    0    0  0.52305750896E+02  0.10049042654E+03  0.55747090598E+02  0.12626145696E+03  0.00000000000E+00 0. -1.
         22    1    1    2    0    0 -0.32929928526E+02  0.16361868654E+01  0.81763657422E+02  0.88160949264E+02  0.00000000000E+00 0. -1.
</event>
<event>
 6    1  0.4069520E-005  0.1002284E+03  0.7818608E-02  0.1281908E+00
          2   -1    0    0  502    0  0.00000000000E+00  0.00000000000E+00  0.11981481110E+03  0.11981481110E+03  0.00000000000E+00 0.  1.
          1   -1    0    0  501    0 -0.00000000000E+00 -0.00000000000E+00 -0.13045090767E+03  0.13045090767E+03  0.00000000000E+00 0.  1.
          2    1    1    2  501    0  0.53509569100E+02  0.45068664007E+02 -0.47605047709E+02  0.84620913656E+02  0.00000000000E+00 0.  1.
          1    1    1    2  502    0 -0.90788976489E+01 -0.19723328982E+02  0.81330619482E+01  0.23185831564E+02  0.00000000000E+00 0.  1.
         22    1    1    2    0    0  0.24000370353E+02  0.35193314990E+02 -0.90514118150E+01  0.43548998299E+02  0.00000000000E+00 0.  1.
         22    1    1    2    0    0 -0.68431041803E+02 -0.60538650015E+02  0.37887301008E+02  0.98909975258E+02  0.00000000000E+00 0.  1.
</event>
<event>
 6    1  0.4069520E-005  0.1425233E+03  0.7818608E-02  0.1214187E+00
          2   -1    0    0  502    0  0.00000000000E+00  0.00000000000E+00  0.13370847518E+04  0.13370847518E+04  0.00000000000E+00 0. -1.
          1   -1    0    0  501    0 -0.00000000000E+00 -0.00000000000E+00 -0.82261887122E+02  0.82261887122E+02  0.00000000000E+00 0.  1.
          2    1    1    2  501    0  0.13571716127E+03  0.59712385314E+02  0.62309118199E+03  0.64048992022E+03  0.00000000000E+00 0. -1.
          1    1    1    2  502    0 -0.10047103546E+03  0.15495302350E+02 -0.25703710774E+02  0.10485806649E+03  0.00000000000E+00 0.  1.
         22    1    1    2    0    0 -0.45025032706E+02 -0.10652289719E+03  0.51913808482E+03  0.53186345269E+03  0.00000000000E+00 0. -1.
         22    1    1    2    0    0  0.97789068971E+01  0.31315209529E+02  0.13829730869E+03  0.14213519957E+03  0.00000000000E+00 0. -1.
</event>
<event>
 6    1  0.4069520E-005  0.6765645E+03  0.7818608E-02  0.1112283E+00
          2   -1    0    0  502    0  0.00000000000E+00  0.00000000000E+00  0.42437276498E+03  0.42437276498E+03  0.00000000000E+00 0. -1.
          1   -1    0    0  501    0 -0.00000000000E+00 -0.00000000000E+00 -0.23072274060E+04  0.23072274060E+04  0.00000000000E+00 0.  1.
          2    1    1    2  501    0  0.47294079933E+03 -0.31580610249E+03 -0.81172473800E+02  0.57445231704E+03  0.00000000000E+00 0. -1.
          1    1    1    2  502    0 -0.57453458050E+03  0.34321154060E+03 -0.18626792050E+04  0.19792569228E+04  0.00000000000E+00 0.  1.
         22    1    1    2    0    0  0.45680266623E+00 -0.12936328055E+02  0.73798649621E+02  0.74925282369E+02  0.00000000000E+00 0.  1.
         22    1    1    2    0    0  0.10113697850E+03 -0.14469110054E+02 -0.12801611881E+02  0.10296564880E+03  0.00000000000E+00 0. -1.
</event>
<event>
 6    1  0.4069520E-005  0.6495180E+02  0.7818608E-02  0.1486228E+00
          2   -1    0    0  502    0  0.00000000000E+00  0.00000000000E+00  0.41319965949E+02  0.41319965949E+02  0.00000000000E+00 0. -1.
          1   -1    0    0  501    0 -0.00000000000E+00 -0.00000000000E+00 -0.15688339951E+04  0.15688339951E+04  0.00000000000E+00 0. -1.
          2    1    1    2  501    0  0.21925163097E+02 -0.34648360107E+02 -0.89490072332E+03  0.89583956501E+03  0.00000000000E+00 0. -1.
          1    1    1    2  502    0  0.31565544139E+01  0.27091178268E+02 -0.57568079331E+03  0.57632653206E+03  0.00000000000E+00 0. -1.
         22    1    1    2    0    0 -0.84836623299E+01  0.93869441055E+01  0.38799496110E+02  0.40810392604E+02  0.00000000000E+00 0. -1.
         22    1    1    2    0    0 -0.16598055181E+02 -0.18297622667E+01 -0.95732008661E+02  0.97177471401E+02  0.00000000000E+00 0. -1.
</event>
<event>
 6    1  0.4069520E-005  0.6755848E+02  0.7818608E-02  0.1456112E+00
          2   -1    0    0  502    0  0.00000000000E+00  0.00000000000E+00  0.56242981683E+02  0.56242981683E+02  0.00000000000E+00 0. -1.
          1   -1    0    0  501    0 -0.00000000000E+00 -0.00000000000E+00 -0.41751496989E+03  0.41751496989E+03  0.00000000000E+00 0. -1.
          2    1    1    2  501    0  0.25564410635E+01  0.22398855321E+02 -0.23903869683E+03  0.24009944334E+03  0.00000000000E+00 0. -1.
          1    1    1    2  502    0 -0.52180453057E+02 -0.20038368140E+02 -0.13047535177E+02  0.57398380231E+02  0.00000000000E+00 0. -1.
         22    1    1    2    0    0  0.36051796745E+02  0.83634744326E+01 -0.13787716482E+03  0.14275781006E+03  0.00000000000E+00 0. -1.
         22    1    1    2    0    0  0.13572215248E+02 -0.10723961613E+02  0.28691408617E+02  0.33502317948E+02  0.00000000000E+00 0. -1.
</event>
<event>
 6    1  0.4069520E-005  0.8386924E+02  0.7818608E-02  0.1320699E+00
          2   -1    0    0  502    0  0.00000000000E+00  0.00000000000E+00  0.31301196030E+02  0.31301196030E+02  0.00000000000E+00 0.  1.
          1   -1    0    0  501    0 -0.00000000000E+00 -0.00000000000E+00 -0.54592483144E+03  0.54592483144E+03  0.00000000000E+00 0.  1.
          2    1    1    2  501    0 -0.71526688574E+02 -0.23418671723E+02 -0.18495606742E+03  0.19968286917E+03  0.00000000000E+00 0.  1.
          1    1    1    2  502    0  0.11354068411E+02 -0.32393578374E+02 -0.42329125874E+02  0.54497831944E+02  0.00000000000E+00 0.  1.
         22    1    1    2    0    0  0.70637891258E+01 -0.37848146000E+02 -0.97037018142E+02  0.10439617887E+03  0.00000000000E+00 0. -1.
         22    1    1    2    0    0  0.53108831037E+02  0.93660396097E+02 -0.19030142397E+03  0.21864914749E+03  0.00000000000E+00 0.  1.
</event>
<event>
 6    1  0.4069520E-005  0.8053454E+02  0.7818608E-02  0.1332599E+00
          2   -1    0    0  502    0  0.00000000000E+00  0.00000000000E+00  0.16742656628E+02  0.16742656628E+02  0.00000000000E+00 0. -1.
          1   -1    0    0  501    0 -0.00000000000E+00 -0.00000000000E+00 -0.11605696277E+04  0.11605696277E+04  0.00000000000E+00 0. -1.
          2    1    1    2  501    0  0.33006778359E+02 -0.26108555005E+00 -0.97392963022E+02  0.10283435627E+03  0.00000000000E+00 0. -1.
          1    1    1    2  502    0 -0.19232750528E+02 -0.33308699443E+02 -0.76441415029E+03  0.76538118694E+03  0.00000000000E+00 0. -1.
         22    1    1    2    0    0 -0.41905428524E+02  0.67942145594E+02 -0.15178474870E+03  0.17149580177E+03  0.00000000000E+00 0. -1.
         22    1    1    2    0    0  0.28131400693E+02 -0.34372360602E+02 -0.13023510909E+03  0.13760093937E+03  0.00000000000E+00 0. -1.
</event>
<event>
 6    1  0.4069520E-005  0.7833951E+02  0.7818608E-02  0.1335713E+00
          2   -1    0    0  502    0  0.00000000000E+00  0.00000000000E+00  0.13829990218E+02  0.13829990218E+02  0.00000000000E+00 0. -1.
          1   -1    0    0  501    0 -0.00000000000E+00 -0.00000000000E+00 -0.64603754111E+03  0.64603754111E+03  0.00000000000E+00 0. -1.
          2    1    1    2  501    0  0.24262260094E+02 -0.19651594824E+02 -0.11617492308E+03  0.12029736156E+03  0.00000000000E+00 0. -1.
          1    1    1    2  502    0 -0.21223082449E+02  0.23307095587E+02 -0.10287527895E+03  0.10759629618E+03  0.00000000000E+00 0. -1.
         22    1    1    2    0    0  0.46015760357E+02 -0.37947519448E+02 -0.13725720946E+03  0.14965629282E+03  0.00000000000E+00 0. -1.
         22    1    1    2    0    0 -0.49054938002E+02  0.34292018685E+02 -0.27590013940E+03  0.28231758076E+03  0.00000000000E+00 0. -1.
</event>
<event>
 6    1  0.4069520E-005  0.1411375E+03  0.7818608E-02  0.1325330E+00
          2   -1    0    0  502    0  0.00000000000E+00  0.00000000000E+00  0.33451501516E+03  0.33451501516E+03  0.00000000000E+00 0.  1.
          1   -1    0    0  501    0 -0.00000000000E+00 -0.00000000000E+00 -0.21576550561E+03  0.21576550561E+03  0.00000000000E+00 0. -1.
          2    1    1    2  501    0  0.67883140929E+02 -0.97438990965E+01  0.10319164054E+03  0.12390148938E+03  0.00000000000E+00 0.  1.
          1    1    1    2  502    0  0.20473896924E+02  0.92818692108E+01 -0.17865399804E+03  0.18006272398E+03  0.00000000000E+00 0. -1.
         22    1    1    2    0    0 -0.25760031024E+02 -0.12518801878E+02 -0.11527430291E+02  0.30873633540E+02  0.00000000000E+00 0.  1.
         22    1    1    2    0    0 -0.62597006829E+02  0.12980831764E+02  0.20573929733E+03  0.21544267387E+03  0.00000000000E+00 0.  1.
</event>
<event>
 6    1  0.4069520E-005  0.1271932E+03  0.7818608E-02  0.1307517E+00
          2   -1    0    0  502    0  0.00000000000E+00  0.00000000000E+00  0.11709642795E+03  0.11709642795E+03  0.00000000000E+00 0. -1.
          1   -1    0    0  501    0 -0.00000000000E+00 -0.00000000000E+00 -0.14931831711E+04  0.14931831711E+04  0.00000000000E+00 0. -1.
          2    1    1    2  501    0  0.18650545094E+02 -0.21880345453E+02  0.76238336984E+01  0.29744162279E+02  0.00000000000E+00 0. -1.
          1    1    1    2  502    0 -0.26659546165E+02  0.11852145466E+03 -0.14114703115E+04  0.14166885708E+04  0.00000000000E+00 0. -1.
         22    1    1    2    0    0  0.21839984971E+02 -0.12244538596E+03  0.13001900060E+01  0.12438467744E+03  0.00000000000E+00 0. -1.
         22    1    1    2    0    0 -0.13830983900E+02  0.25804276762E+02  0.26459544648E+02  0.39462188457E+02  0.00000000000E+00 0. -1.
</event>
<event>
 6    1  0.4069520E-005  0.2140758E+03  0.7818608E-02  0.1206860E+00
          2   -1    0    0  502    0  0.00000000000E+00  0.00000000000E+00  0.62919733356E+03  0.62919733356E+03  0.00000000000E+00 0. -1.
          1   -1    0    0  501    0 -0.00000000000E+00 -0.00000000000E+00 -0.94636205099E+03  0.94636205099E+03  0.00000000000E+00 0. -1.
          2    1    1    2  501    0 -0.52976853717E+02  0.67605497688E+02  0.69878420425E+02  0.11072508292E+03  0.00000000000E+00 0. -1.
          1    1    1    2  502    0  0.50418713152E+02 -0.86437729667E+00 -0.91589305490E+03  0.91728015448E+03  0.00000000000E+00 0. -1.
         22    1    1    2    0    0  0.43966613900E+02  0.93830627698E+01  0.94560925167E+02  0.10470374193E+03  0.00000000000E+00 0. -1.
         22    1    1    2    0    0 -0.41408473335E+02 -0.76124183162E+02  0.43428899188E+03  0.44285040521E+03  0.00000000000E+00 0. -1.
</event>
<event>
 6    1  0.4069520E-005  0.1348771E+03  0.7818608E-02  0.1305745E+00
          2   -1    0    0  502    0  0.00000000000E+00  0.00000000000E+00  0.25448793640E+03  0.25448793640E+03  0.00000000000E+00 0.  1.
          1   -1    0    0  501    0 -0.00000000000E+00 -0.00000000000E+00 -0.14513418658E+03  0.14513418658E+03  0.00000000000E+00 0. -1.
          2    1    1    2  501    0 -0.14394430565E+02  0.37638699917E+02  0.70553605830E+02  0.81250739433E+02  0.00000000000E+00 0.  1.
          1    1    1    2  502    0  0.30485270250E+02 -0.10851685627E+03 -0.75274559542E+02  0.13554157706E+03  0.00000000000E+00 0. -1.
         22    1    1    2    0    0  0.65875677938E+01  0.59528860077E+02 -0.59204551428E+01  0.60184159216E+02  0.00000000000E+00 0.  1.
         22    1    1    2    0    0 -0.22678407479E+02  0.11349296278E+02  0.11999515867E+03  0.12264564728E+03  0.00000000000E+00 0. -1.
</event>
<event>
 6    1  0.4069520E-005  0.2960737E+03  0.7818608E-02  0.1147364E+00
          2   -1    0    0  502    0  0.00000000000E+00  0.00000000000E+00  0.10922893725E+04  0.10922893725E+04  0.00000000000E+00 0. -1.
          1   -1    0    0  501    0 -0.00000000000E+00 -0.00000000000E+00 -0.19903681530E+03  0.19903681530E+03  0.00000000000E+00 0. -1.
          2    1    1    2  501    0 -0.12849314723E+02 -0.67364834517E+02  0.77795912855E+02  0.10370790652E+03  0.00000000000E+00 0. -1.
          1    1    1    2  502    0  0.12913600610E+01  0.28030293757E+03 -0.52654814256E+02  0.28520857961E+03  0.00000000000E+00 0. -1.
         22    1    1    2    0    0  0.57325917222E+02 -0.16646537714E+03  0.54332341673E+03  0.57113686428E+03  0.00000000000E+00 0.  1.
         22    1    1    2    0    0 -0.45767962560E+02 -0.46472725905E+02  0.32478804192E+03  0.33127283744E+03  0.00000000000E+00 0. -1.
</event>
<event>
 6    1  0.4069520E-005  0.2791979E+03  0.7818608E-02  0.1228655E+00
          2   -1    0    0  502    0  0.00000000000E+00  0.00000000000E+00  0.29826524308E+03  0.29826524308E+03  0.00000000000E+00 0.  1.
          1   -1    0    0  501    0 -0.00000000000E+00 -0.00000000000E+00 -0.77626917739E+03  0.77626917739E+03  0.00000000000E+00 0. -1.
          2    1    1    2  501    0  0.10392348096E+03 -0.59376517680E+02  0.15518694685E+03  0.19598124711E+03  0.00000000000E+00 0.  1.
          1    1    1    2  502    0  0.18692784897E+02  0.50619030173E+02 -0.69157317683E+03  0.69367511511E+03  0.00000000000E+00 0. -1.
         22    1    1    2    0    0 -0.12651437054E+03 -0.34358058539E+01  0.14966756520E+01  0.12656986511E+03  0.00000000000E+00 0. -1.
         22    1    1    2    0    0  0.38981046807E+01  0.12193293361E+02  0.56885620011E+02  0.58308193139E+02  0.00000000000E+00 0. -1.
</event>
<event>
 6    1  0.4069520E-005  0.3884494E+02  0.7818608E-02  0.1551891E+00
          2   -1    0    0  502    0  0.00000000000E+00  0.00000000000E+00  0.13000973493E+03  0.13000973493E+03  0.00000000000E+00 0. -1.
          1   -1    0    0  501    0 -0.00000000000E+00 -0.00000000000E+00 -0.20703450410E+03  0.20703450410E+03  0.00000000000E+00 0. -1.
          2    1    1    2  501    0 -0.26648723087E+02  0.11242910375E+02 -0.97687905250E+02  0.10187975416E+03  0.00000000000E+00 0. -1.
          1    1    1    2  502    0 -0.13689331165E+01 -0.30940606765E+02 -0.71074563657E+02  0.77529276560E+02  0.00000000000E+00 0. -1.
         22    1    1    2    0    0  0.22395164500E+02  0.10039054519E+02  0.12248511260E+03  0.12491968947E+03  0.00000000000E+00 0. -1.
         22    1    1    2    0    0  0.56224917041E+01  0.96586418710E+01 -0.30747412856E+02  0.32715518842E+02  0.00000000000E+00 0. -1.
</event>
<event>
 6    1  0.4069520E-005  0.7091599E+02  0.7818608E-02  0.1370027E+00
          2   -1    0    0  502    0  0.00000000000E+00  0.00000000000E+00  0.33791085782E+03  0.33791085782E+03  0.00000000000E+00 0. -1.
          1   -1    0    0  501    0 -0.00000000000E+00 -0.00000000000E+00 -0.73975060506E+03  0.73975060506E+03  0.00000000000E+00 0.  1.
          2    1    1    2  501    0  0.31064027673E+02  0.36448975117E+02  0.32920593031E+02  0.58114258559E+02  0.00000000000E+00 0. -1.
          1    1    1    2  502    0 -0.26933584571E+01 -0.40541688257E+02 -0.71262001826E+03  0.71377739744E+03  0.00000000000E+00 0.  1.
         22    1    1    2    0    0  0.27924106796E+02 -0.76149252926E+01  0.82495671928E+01  0.30096481297E+02  0.00000000000E+00 0. -1.
         22    1    1    2    0    0 -0.56294776012E+02  0.11707638432E+02  0.26961011079E+03  0.27567332559E+03  0.00000000000E+00 0. -1.
</event>
<event>
 6    1  0.4069520E-005  0.1208110E+03  0.7818608E-02  0.1299022E+00
          2   -1    0    0  502    0  0.00000000000E+00  0.00000000000E+00  0.25608046878E+03  0.25608046878E+03  0.00000000000E+00 0. -1.
          1   -1    0    0  501    0 -0.00000000000E+00 -0.00000000000E+00 -0.18228155742E+03  0.18228155742E+03  0.00000000000E+00 0. -1.
          2    1    1    2  501    0 -0.82715941341E+02 -0.73608591559E+02 -0.26772727304E+02  0.11391633171E+03  0.00000000000E+00 0. -1.
          1    1    1    2  502    0  0.69786939089E+02  0.31117125626E+02 -0.74455582998E+02  0.10668704801E+03  0.00000000000E+00 0. -1.
         22    1    1    2    0    0 -0.22831809030E+02  0.24733134067E+02 -0.43963208383E+01  0.33946237807E+02  0.00000000000E+00 0. -1.
         22    1    1    2    0    0  0.35760811282E+02  0.17758331866E+02  0.17942354251E+03  0.18381240867E+03  0.00000000000E+00 0.  1.
</event>
<event>
 6    1  0.4069520E-005  0.1036967E+03  0.7818608E-02  0.1277515E+00
          2   -1    0    0  502    0  0.00000000000E+00  0.00000000000E+00  0.63434316735E+03  0.63434316735E+03  0.00000000000E+00 0.  1.
          1   -1    0    0  501    0 -0.00000000000E+00 -0.00000000000E+00 -0.22505151429E+02  0.22505151429E+02  0.00000000000E+00 0.  1.
          2    1    1    2  501    0 -0.57830207003E+00 -0.37030222082E+02  0.87761673544E+02  0.95255882359E+02  0.00000000000E+00 0.  1.
          1    1    1    2  502    0 -0.43734831385E+02  0.54962494586E+02  0.14915483877E+03  0.16486593710E+03  0.00000000000E+00 0.  1.
         22    1    1    2    0    0  0.85273267950E+02 -0.23136946237E+02  0.26144614470E+03  0.27597270714E+03  0.00000000000E+00 0.  1.
         22    1    1    2    0    0 -0.40960134494E+02  0.52046737334E+01  0.11347535891E+03  0.12075379218E+03  0.00000000000E+00 0.  1.
</event>
<event>
 6    1  0.4069520E-005  0.5507450E+02  0.7818608E-02  0.1457579E+00
          2   -1    0    0  502    0  0.00000000000E+00  0.00000000000E+00  0.87653553647E+02  0.87653553647E+02  0.00000000000E+00 0.  1.
          1   -1    0    0  501    0 -0.00000000000E+00 -0.00000000000E+00 -0.82192807151E+03  0.82192807151E+03  0.00000000000E+00 0. -1.
          2    1    1    2  501    0  0.29707645612E+02 -0.17698717924E+02 -0.26026220888E+02  0.43279937589E+02  0.00000000000E+00 0.  1.
          1    1    1    2  502    0 -0.46338898005E+01  0.25484660000E+02 -0.73862336079E+03  0.73907740456E+03  0.00000000000E+00 0. -1.
         22    1    1    2    0    0 -0.11665576633E+02 -0.34943297779E+02 -0.37703172215E+02  0.52712891525E+02  0.00000000000E+00 0.  1.
         22    1    1    2    0    0 -0.13408179179E+02  0.27157355703E+02  0.68078236037E+02  0.74511391475E+02  0.00000000000E+00 0.  1.
</event>
<event>
 6    1  0.4069520E-005  0.1080352E+03  0.7818608E-02  0.1320617E+00
          2   -1    0    0  502    0  0.00000000000E+00  0.00000000000E+00  0.82362424908E+02  0.82362424908E+02  0.00000000000E+00 0. -1.
          1   -1    0    0  501    0 -0.00000000000E+00 -0.00000000000E+00 -0.49477764696E+03  0.49477764696E+03  0.00000000000E+00 0. -1.
          2    1    1    2  501    0  0.55047967474E+01  0.24357018651E+02 -0.38629152660E+02  0.45997593198E+02  0.00000000000E+00 0. -1.
          1    1    1    2  502    0  0.83335475555E+02 -0.53534165370E+02 -0.36364042824E+03  0.37688866977E+03  0.00000000000E+00 0. -1.
         22    1    1    2    0    0 -0.26615405217E+02  0.26735047890E+02  0.53335317146E+02  0.65328390732E+02  0.00000000000E+00 0. -1.
         22    1    1    2    0    0 -0.62224867085E+02  0.24420988286E+01 -0.63480958298E+02  0.88925418171E+02  0.00000000000E+00 0. -1.
</event>
<event>
 6    1  0.4069520E-005  0.2216730E+03  0.7818608E-02  0.1198063E+00
          2   -1    0    0  502    0  0.00000000000E+00  0.00000000000E+00  0.77798624564E+02  0.77798624564E+02  0.00000000000E+00 0.  1.
          1   -1    0    0  501    0 -0.00000000000E+00 -0.00000000000E+00 -0.75786005416E+03  0.75786005416E+03  0.00000000000E+00 0.  1.
          2    1    1    2  501    0 -0.51301789391E+02 -0.13827805624E+03 -0.23365581672E+03  0.27631093920E+03  0.00000000000E+00 0.  1.
          1    1    1    2  502    0  0.24531559983E+02  0.17504033584E+03 -0.36486437666E+03  0.40542191599E+03  0.00000000000E+00 0.  1.
         22    1    1    2    0    0  0.45075901660E+02  0.19154012348E+02 -0.81506266458E+02  0.95089350462E+02  0.00000000000E+00 0.  1.
         22    1    1    2    0    0 -0.18305672252E+02 -0.55916291945E+02 -0.34969753824E-01  0.58836473079E+02  0.00000000000E+00 0.  1.
</event>
<event>
 6    1  0.4069520E-005  0.2062061E+03  0.7818608E-02  0.1209876E+00
          2   -1    0    0  502    0  0.00000000000E+00  0.00000000000E+00  0.81052801213E+02  0.81052801213E+02  0.00000000000E+00 0. -1.
          1   -1    0    0  501    0 -0.00000000000E+00 -0.00000000000E+00 -0.86367625783E+03  0.86367625783E+03  0.00000000000E+00 0. -1.
          2    1    1    2  501    0  0.15980216339E+03 -0.56868799434E+02 -0.15876117800E+03  0.23232714738E+03  0.00000000000E+00 0. -1.
          1    1    1    2  502    0 -0.17337059548E+03  0.68841585579E+02 -0.51905415095E+03  0.55155574414E+03  0.00000000000E+00 0. -1.
         22    1    1    2    0    0 -0.44630556296E+02 -0.15227690940E+02 -0.88562236569E+02  0.10033463446E+03  0.00000000000E+00 0.  1.
         22    1    1    2    0    0  0.58198988387E+02  0.32549047947E+01 -0.16245891100E+02  0.60511533051E+02  0.00000000000E+00 0.  1.
</event>
<event>
 6    1  0.4069520E-005  0.1107330E+03  0.7818608E-02  0.1359383E+00
          2   -1    0    0  502    0  0.00000000000E+00  0.00000000000E+00  0.78206026266E+02  0.78206026266E+02  0.00000000000E+00 0.  1.
          1   -1    0    0  501    0 -0.00000000000E+00 -0.00000000000E+00 -0.49326404764E+03  0.49326404764E+03  0.00000000000E+00 0. -1.
          2    1    1    2  501    0 -0.42687239074E+02  0.30487566026E+02  0.32485566376E+01  0.52557065959E+02  0.00000000000E+00 0.  1.
          1    1    1    2  502    0  0.30195505608E+02  0.91620183930E+01 -0.38196689108E+03  0.38326807462E+03  0.00000000000E+00 0. -1.
         22    1    1    2    0    0 -0.11842696531E+01 -0.28107330123E+02 -0.81952768048E+02  0.86646873527E+02  0.00000000000E+00 0.  1.
         22    1    1    2    0    0  0.13676003119E+02 -0.11542254296E+02  0.45613081116E+02  0.48998059803E+02  0.00000000000E+00 0.  1.
</event>
<event>
 6    1  0.4069520E-005  0.1145061E+03  0.7818608E-02  0.1311955E+00
          2   -1    0    0  502    0  0.00000000000E+00  0.00000000000E+00  0.11101111188E+03  0.11101111188E+03  0.00000000000E+00 0.  1.
          1   -1    0    0  501    0 -0.00000000000E+00 -0.00000000000E+00 -0.56463042260E+03  0.56463042260E+03  0.00000000000E+00 0.  1.
          2    1    1    2  501    0 -0.32075828193E+02 -0.60467940881E+02 -0.10957073194E+02  0.69320185240E+02  0.00000000000E+00 0.  1.
          1    1    1    2  502    0  0.29748611043E+02 -0.82397883336E+01 -0.46386772152E+03  0.46489368358E+03  0.00000000000E+00 0.  1.
         22    1    1    2    0    0 -0.73661761720E+01  0.36914266076E+02  0.71697107407E+02  0.80977767331E+02  0.00000000000E+00 0.  1.
         22    1    1    2    0    0  0.96933933227E+01  0.31793463139E+02 -0.50491623415E+02  0.60449898325E+02  0.00000000000E+00 0.  1.
</event>
<event>
 6    1  0.4069520E-005  0.1157434E+03  0.7818608E-02  0.1285786E+00
          2   -1    0    0  502    0  0.00000000000E+00  0.00000000000E+00  0.13114175372E+03  0.13114175372E+03  0.00000000000E+00 0. -1.
          1   -1    0    0  501    0 -0.00000000000E+00 -0.00000000000E+00 -0.59552722635E+03  0.59552722635E+03  0.00000000000E+00 0. -1.
          2    1    1    2  501    0 -0.42704092906E+02 -0.15671714087E+02 -0.53589469960E+03  0.53782187686E+03  0.00000000000E+00 0. -1.
          1    1    1    2  502    0  0.30790101421E+02 -0.16146614575E+02 -0.10763476685E+02  0.36394998806E+02  0.00000000000E+00 0. -1.
         22    1    1    2    0    0  0.21491944386E+02  0.54054256500E+02  0.10449090788E+03  0.11959145517E+03  0.00000000000E+00 0. -1.
         22    1    1    2    0    0 -0.95779529011E+01 -0.22235927838E+02 -0.22218204233E+02  0.32860649232E+02  0.00000000000E+00 0. -1.
</event>
<event>
 6    1  0.4069520E-005  0.9699024E+02  0.7818608E-02  0.1289792E+00
          2   -1    0    0  502    0  0.00000000000E+00  0.00000000000E+00  0.58459332528E+03  0.58459332528E+03  0.00000000000E+00 0.  1.
          1   -1    0    0  501    0 -0.00000000000E+00 -0.00000000000E+00 -0.73784506690E+02  0.73784506690E+02  0.00000000000E+00 0. -1.
          2    1    1    2  501    0 -0.59969144475E+02  0.23883821175E+02  0.21726311324E+03  0.22664949940E+03  0.00000000000E+00 0.  1.
          1    1    1    2  502    0  0.29859875312E+02 -0.15073692757E+02 -0.52191989448E+02  0.61990580974E+02  0.00000000000E+00 0. -1.
         22    1    1    2    0    0 -0.42012047902E+02 -0.13331366996E+01  0.22506763667E+03  0.22895901489E+03  0.00000000000E+00 0. -1.
         22    1    1    2    0    0  0.72121317065E+02 -0.74769917190E+01  0.12067005812E+03  0.14077873670E+03  0.00000000000E+00 0. -1.
</event>
<event>
 6    1  0.4514581E-005  0.4602444E+02  0.7818608E-02  0.1544602E+00
          2   -1    0    0  502    0  0.00000000000E+00  0.00000000000E+00  0.54509552790E+02  0.54509552790E+02  0.00000000000E+00 0. -1.
          1   -1    0    0  501    0 -0.00000000000E+00 -0.00000000000E+00 -0.12426552882E+04  0.12426552882E+04  0.00000000000E+00 0. -1.
          2    1    1    2  501    0 -0.31543673614E+01 -0.19867404089E+02 -0.30413492998E+03  0.30479947410E+03  0.00000000000E+00 0. -1.
          1    1    1    2  502    0 -0.69096652221E+01  0.36255964687E+02 -0.86559075205E+03  0.86637727837E+03  0.00000000000E+00 0. -1.
         22    1    1    2    0    0 -0.41964221990E+01 -0.15654793282E+02  0.51828191060E+02  0.54303258655E+02  0.00000000000E+00 0. -1.
         22    1    1    2    0    0  0.14260454783E+02 -0.73376731646E+00 -0.70248244460E+02  0.71684829879E+02  0.00000000000E+00 0. -1.
</event>
<event>
 6    1  0.4069520E-005  0.8687457E+02  0.7818608E-02  0.1312148E+00
          2   -1    0    0  502    0  0.00000000000E+00  0.00000000000E+00  0.44240602394E+03  0.44240602394E+03  0.00000000000E+00 0. -1.
          1   -1    0    0  501    0 -0.00000000000E+00 -0.00000000000E+00 -0.20916664410E+03  0.20916664410E+03  0.00000000000E+00 0. -1.
          2    1    1    2  501    0  0.12389279969E+02 -0.49158440843E+02  0.12520452669E+03  0.13507856998E+03  0.00000000000E+00 0. -1.
          1    1    1    2  502    0  0.25036653250E+02  0.38093954634E+02 -0.18798728591E+03  0.19343526837E+03  0.00000000000E+00 0. -1.
         22    1    1    2    0    0 -0.62016355112E+02  0.51304693888E+02  0.21106120204E+03  0.22588720841E+03  0.00000000000E+00 0. -1.
         22    1    1    2    0    0  0.24590421893E+02 -0.40240207679E+02  0.84960937025E+02  0.97171621284E+02  0.00000000000E+00 0. -1.
</event>
<event>
 6    1  0.4069520E-005  0.1364206E+03  0.7818608E-02  0.1260896E+00
          2   -1    0    0  502    0  0.00000000000E+00  0.00000000000E+00  0.16674133257E+03  0.16674133257E+03  0.00000000000E+00 0. -1.
          1   -1    0    0  501    0 -0.00000000000E+00 -0.00000000000E+00 -0.11789199394E+03  0.11789199394E+03  0.00000000000E+00 0. -1.
          2    1    1    2  501    0  0.33336070025E+02 -0.24600244029E+02 -0.33052893747E+02  0.52999616565E+02  0.00000000000E+00 0. -1.
          1    1    1    2  502    0 -0.83683320684E+02  0.70048872138E+01  0.27906772634E+02  0.88491550808E+02  0.00000000000E+00 0. -1.
         22    1    1    2    0    0  0.23845727787E+02 -0.52102366498E+02  0.16208880202E+02  0.59548325969E+02  0.00000000000E+00 0. -1.
         22    1    1    2    0    0  0.26501522872E+02  0.69697723312E+02  0.37786579547E+02  0.83593833165E+02  0.00000000000E+00 0. -1.
</event>
<event>
 6    1  0.4069520E-005  0.2017547E+03  0.7818608E-02  0.1176094E+00
          2   -1    0    0  502    0  0.00000000000E+00  0.00000000000E+00  0.14201026092E+03  0.14201026092E+03  0.00000000000E+00 0.  1.
          1   -1    0    0  501    0 -0.00000000000E+00 -0.00000000000E+00 -0.51009560858E+03  0.51009560858E+03  0.00000000000E+00 0.  1.
          2    1    1    2  501    0 -0.66102125085E+02 -0.58508418107E+02 -0.72507678881E+02  0.11423698800E+03  0.00000000000E+00 0.  1.
          1    1    1    2  502    0 -0.28701152887E+02  0.20087613929E+03 -0.24443488382E+03  0.31768442193E+03  0.00000000000E+00 0.  1.
         22    1    1    2    0    0 -0.33881116014E+01 -0.10293643227E+03 -0.49711621997E+02  0.11436185444E+03  0.00000000000E+00 0. -1.
         22    1    1    2    0    0  0.98191389574E+02 -0.39431288910E+02 -0.14311629680E+01  0.10582260514E+03  0.00000000000E+00 0. -1.
</event>
<event>
 6    1  0.4069520E-005  0.4826056E+03  0.7818608E-02  0.1089723E+00
          2   -1    0    0  502    0  0.00000000000E+00  0.00000000000E+00  0.49761548786E+03  0.49761548786E+03  0.00000000000E+00 0. -1.
          1   -1    0    0  501    0 -0.00000000000E+00 -0.00000000000E+00 -0.53461259925E+03  0.53461259925E+03  0.00000000000E+00 0. -1.
          2    1    1    2  501    0 -0.43554323735E+02  0.37979875474E+03 -0.53425794458E+02  0.38600309420E+03  0.00000000000E+00 0. -1.
          1    1    1    2  502    0 -0.10150943478E+03 -0.37313985193E+03 -0.12779925810E+03  0.40727161062E+03  0.00000000000E+00 0. -1.
         22    1    1    2    0    0  0.42696614668E+02 -0.47641949614E+02  0.10296180861E+03  0.12121835793E+03  0.00000000000E+00 0. -1.
         22    1    1    2    0    0  0.10236714385E+03  0.40983046802E+02  0.41266132567E+02  0.11773502436E+03  0.00000000000E+00 0.  1.
</event>
<event>
 6    1  0.4069520E-005  0.1362864E+03  0.7818608E-02  0.1279248E+00
          2   -1    0    0  502    0  0.00000000000E+00  0.00000000000E+00  0.11357069180E+03  0.11357069180E+03  0.00000000000E+00 0.  1.
          1   -1    0    0  501    0 -0.00000000000E+00 -0.00000000000E+00 -0.76995549897E+03  0.76995549897E+03  0.00000000000E+00 0.  1.
          2    1    1    2  501    0  0.44040269416E+02  0.13421211208E+02  0.25251495393E+02  0.52510115789E+02  0.00000000000E+00 0.  1.
          1    1    1    2  502    0 -0.88240529526E+02 -0.53385359234E+02 -0.68478783987E+03  0.69251048603E+03  0.00000000000E+00 0.  1.
         22    1    1    2    0    0  0.38998116007E+01  0.39962984900E+02 -0.54789431318E+02  0.67927391211E+02  0.00000000000E+00 0.  1.
         22    1    1    2    0    0  0.40300448509E+02  0.11631262280E-02  0.57940968620E+02  0.70578197738E+02  0.00000000000E+00 0.  1.
</event>
<event>
 6    1  0.4069520E-005  0.1745578E+03  0.7818608E-02  0.1230191E+00
          2   -1    0    0  502    0  0.00000000000E+00  0.00000000000E+00  0.19993882837E+02  0.19993882837E+02  0.00000000000E+00 0. -1.
          1   -1    0    0  501    0 -0.00000000000E+00 -0.00000000000E+00 -0.10182184945E+04  0.10182184945E+04  0.00000000000E+00 0. -1.
          2    1    1    2  501    0  0.14259822670E+02  0.14882614508E+02 -0.49853854299E+03  0.49896444122E+03  0.00000000000E+00 0. -1.
          1    1    1    2  502    0 -0.36022095631E+02 -0.22508527577E+02 -0.30409549290E+03  0.30704770637E+03  0.00000000000E+00 0. -1.
         22    1    1    2    0    0  0.49032403842E+02 -0.25655063046E+02 -0.17678434019E+03  0.18524325042E+03  0.00000000000E+00 0. -1.
         22    1    1    2    0    0 -0.27270130880E+02  0.33280976115E+02 -0.18806235555E+02  0.46956979302E+02  0.00000000000E+00 0. -1.
</event>
<event>
 6    1  0.4069520E-005  0.1658690E+03  0.7818608E-02  0.1246708E+00
          2   -1    0    0  502    0  0.00000000000E+00  0.00000000000E+00  0.19486593798E+03  0.19486593798E+03  0.00000000000E+00 0. -1.
          1   -1    0    0  501    0 -0.00000000000E+00 -0.00000000000E+00 -0.12215975942E+03  0.12215975942E+03  0.00000000000E+00 0. -1.
          2    1    1    2  501    0 -0.36524455730E+02  0.12259132783E+02  0.12173727425E+03  0.12768823809E+03  0.00000000000E+00 0. -1.
          1    1    1    2  502    0  0.35827765192E+02  0.54456038505E+01 -0.53026101795E+02  0.64226558615E+02  0.00000000000E+00 0. -1.
         22    1    1    2    0    0  0.29353186478E+02  0.25243625530E+02  0.44866436114E+02  0.59260840999E+02  0.00000000000E+00 0. -1.
         22    1    1    2    0    0 -0.28656495940E+02 -0.42948362164E+02 -0.40871430009E+02  0.65850059704E+02  0.00000000000E+00 0. -1.
</event>
<event>
 6    1  0.4069520E-005  0.1101486E+03  0.7818608E-02  0.1263170E+00
          2   -1    0    0  502    0  0.00000000000E+00  0.00000000000E+00  0.80670235945E+03  0.80670235945E+03  0.00000000000E+00 0. -1.
          1   -1    0    0  501    0 -0.00000000000E+00 -0.00000000000E+00 -0.19053671735E+03  0.19053671735E+03  0.00000000000E+00 0. -1.
          2    1    1    2  501    0 -0.83411904305E+02  0.20274810742E+02  0.28447569453E+03  0.29714480394E+03  0.00000000000E+00 0. -1.
          1    1    1    2  502    0  0.75121804841E+02  0.61828816046E+02 -0.15910234980E+03  0.18649301802E+03  0.00000000000E+00 0. -1.
         22    1    1    2    0    0 -0.28103309998E+02  0.21067657265E+02  0.19687204867E+03  0.19998061347E+03  0.00000000000E+00 0.  1.
         22    1    1    2    0    0  0.36393409462E+02 -0.10317128405E+03  0.29392024869E+03  0.31362064138E+03  0.00000000000E+00 0.  1.
</event>
<event>
 6    1  0.4069520E-005  0.1708471E+03  0.7818608E-02  0.1278034E+00
          2   -1    0    0  502    0  0.00000000000E+00  0.00000000000E+00  0.24682516568E+03  0.24682516568E+03  0.00000000000E+00 0. -1.
          1   -1    0    0  501    0 -0.00000000000E+00 -0.00000000000E+00 -0.19004061091E+03  0.19004061091E+03  0.00000000000E+00 0. -1.
          2    1    1    2  501    0  0.88893447866E+02  0.19565289450E+02 -0.87362137885E+02  0.12616254896E+03  0.00000000000E+00 0. -1.
          1    1    1    2  502    0 -0.30553428406E+02 -0.32387546885E+02  0.16123788702E+03  0.16727259606E+03  0.00000000000E+00 0. -1.
         22    1    1    2    0    0 -0.75413673005E+02  0.24938882866E+02 -0.57406370804E+02  0.98003374246E+02  0.00000000000E+00 0. -1.
         22    1    1    2    0    0  0.17073653545E+02 -0.12116625431E+02  0.40315176436E+02  0.45427257327E+02  0.00000000000E+00 0.  1.
</event>
<event>
 6    1  0.4069520E-005  0.1342459E+03  0.7818608E-02  0.1223267E+00
          2   -1    0    0  502    0  0.00000000000E+00  0.00000000000E+00  0.43055073712E+02  0.43055073712E+02  0.00000000000E+00 0. -1.
          1   -1    0    0  501    0 -0.00000000000E+00 -0.00000000000E+00 -0.73039192336E+03  0.73039192336E+03  0.00000000000E+00 0. -1.
          2    1    1    2  501    0  0.48475583734E+02 -0.12623418042E+03 -0.35540534310E+03  0.38026031666E+03  0.00000000000E+00 0. -1.
          1    1    1    2  502    0  0.40812780534E+01  0.53876331272E+02 -0.99809738095E+02  0.11349581367E+03  0.00000000000E+00 0. -1.
         22    1    1    2    0    0 -0.77202172017E+02  0.89701707779E+02 -0.14305895479E+03  0.18566754236E+03  0.00000000000E+00 0. -1.
         22    1    1    2    0    0  0.24645310230E+02 -0.17343858628E+02 -0.89062813670E+02  0.94023324379E+02  0.00000000000E+00 0. -1.
</event>
<event>
 6    1  0.4069520E-005  0.6458789E+02  0.7818608E-02  0.1390469E+00
          2   -1    0    0  502    0  0.00000000000E+00  0.00000000000E+00  0.12269822391E+03  0.12269822391E+03  0.00000000000E+00 0.  1.
          1   -1    0    0  501    0 -0.00000000000E+00 -0.00000000000E+00 -0.21802763111E+03  0.21802763111E+03  0.00000000000E+00 0.  1.
          2    1    1    2  501    0  0.71473663958E+02  0.17959308456E+02 -0.13078021670E+03  0.15011491091E+03  0.00000000000E+00 0.  1.
          1    1    1    2  502    0 -0.35430730431E+02 -0.38152660752E+02 -0.12787577489E+02  0.53614217511E+02  0.00000000000E+00 0.  1.
         22    1    1    2    0    0 -0.44366706519E+02  0.30303960512E+02  0.83550193105E+02  0.99334633627E+02  0.00000000000E+00 0.  1.
         22    1    1    2    0    0  0.83237729914E+01 -0.10110608217E+02 -0.35311806116E+02  0.37662092965E+02  0.00000000000E+00 0.  1.
</event>
<event>
 6    1  0.4069520E-005  0.2152687E+03  0.7818608E-02  0.1140776E+00
          2   -1    0    0  502    0  0.00000000000E+00  0.00000000000E+00  0.15554711892E+03  0.15554711892E+03  0.00000000000E+00 0. -1.
          1   -1    0    0  501    0 -0.00000000000E+00 -0.00000000000E+00 -0.81612519981E+03  0.81612519981E+03  0.00000000000E+00 0. -1.
          2    1    1    2  501    0  0.15622505107E+03 -0.97803382421E+02 -0.36069609571E+03  0.40505980010E+03  0.00000000000E+00 0. -1.
          1    1    1    2  502    0 -0.23322045529E+03 -0.73082646715E+02 -0.10055139804E+03  0.26427909048E+03  0.00000000000E+00 0. -1.
         22    1    1    2    0    0 -0.33637494348E+02  0.20613220448E+02 -0.23389096988E+02  0.45863228639E+02  0.00000000000E+00 0.  1.
         22    1    1    2    0    0  0.11063289857E+03  0.15027280869E+03 -0.17594149015E+03  0.25647019950E+03  0.00000000000E+00 0. -1.
</event>
<event>
 6    1  0.4069520E-005  0.1025920E+03  0.7818608E-02  0.1371980E+00
          2   -1    0    0  502    0  0.00000000000E+00  0.00000000000E+00  0.83667403802E+02  0.83667403802E+02  0.00000000000E+00 0. -1.
          1   -1    0    0  501    0 -0.00000000000E+00 -0.00000000000E+00 -0.11093483345E+04  0.11093483345E+04  0.00000000000E+00 0.  1.
          2    1    1    2  501    0  0.69606363636E+02  0.28690598802E+02 -0.28983939020E+03  0.29945795770E+03  0.00000000000E+00 0. -1.
          1    1    1    2  502    0 -0.10143523830E+03 -0.36130005151E+02 -0.75626773676E+03  0.76389487137E+03  0.00000000000E+00 0.  1.
         22    1    1    2    0    0  0.15561935866E+02  0.95184764019E+01  0.72660152601E+02  0.74915105398E+02  0.00000000000E+00 0. -1.
         22    1    1    2    0    0  0.16266938794E+02 -0.20790700528E+01 -0.52233956378E+02  0.54747803873E+02  0.00000000000E+00 0. -1.
</event>
<event>
 6    1  0.4069520E-005  0.1520027E+03  0.7818608E-02  0.1270878E+00
          2   -1    0    0  502    0  0.00000000000E+00  0.00000000000E+00  0.15852065878E+03  0.15852065878E+03  0.00000000000E+00 0. -1.
          1   -1    0    0  501    0 -0.00000000000E+00 -0.00000000000E+00 -0.15975936058E+03  0.15975936058E+03  0.00000000000E+00 0. -1.
          2    1    1    2  501    0  0.57369805901E+02  0.25298947720E+02 -0.69129482349E+01  0.63080268215E+02  0.00000000000E+00 0. -1.
          1    1    1    2  502    0  0.27710360162E+01 -0.70275280078E+02 -0.62396947151E+02  0.94019533313E+02  0.00000000000E+00 0. -1.
         22    1    1    2    0    0 -0.80936836781E+02  0.17942878616E+02 -0.23490595569E+01  0.82935134424E+02  0.00000000000E+00 0.  1.
         22    1    1    2    0    0  0.20795994864E+02  0.27033453743E+02  0.70420253147E+02  0.78245083404E+02  0.00000000000E+00 0.  1.
</event>
<event>
 6    1  0.4069520E-005  0.2123652E+03  0.7818608E-02  0.1195117E+00
          2   -1    0    0  502    0  0.00000000000E+00  0.00000000000E+00  0.52443204231E+03  0.52443204231E+03  0.00000000000E+00 0. -1.
          1   -1    0    0  501    0 -0.00000000000E+00 -0.00000000000E+00 -0.22592525752E+03  0.22592525752E+03  0.00000000000E+00 0. -1.
          2    1    1    2  501    0  0.46290939428E+02 -0.52101267419E+02  0.28462460313E+01  0.69753094959E+02  0.00000000000E+00 0. -1.
          1    1    1    2  502    0 -0.49328178942E+02  0.50053668437E+01 -0.17997556860E+03  0.18668028345E+03  0.00000000000E+00 0. -1.
         22    1    1    2    0    0 -0.59692192242E+02  0.34493749493E+02  0.23204460821E+03  0.24206957010E+03  0.00000000000E+00 0.  1.
         22    1    1    2    0    0  0.62729431756E+02  0.12602151083E+02  0.24359149915E+03  0.25185435132E+03  0.00000000000E+00 0. -1.
</event>
<event>
 6    1  0.4069520E-005  0.8465817E+02  0.7818608E-02  0.1334990E+00
          2   -1    0    0  502    0  0.00000000000E+00  0.00000000000E+00  0.30904296280E+03  0.30904296280E+03  0.00000000000E+00 0.  1.
          1   -1    0    0  501    0 -0.00000000000E+00 -0.00000000000E+00 -0.46639001329E+02  0.46639001329E+02  0.00000000000E+00 0. -1.
          2    1    1    2  501    0 -0.23523744889E+01  0.24351843302E+02  0.17362193070E+02  0.29999861436E+02  0.00000000000E+00 0.  1.
          1    1    1    2  502    0 -0.27476385030E+02 -0.71143382205E+02  0.84796765456E+02  0.11404746379E+03  0.00000000000E+00 0. -1.
         22    1    1    2    0    0  0.54756365453E+02 -0.26496004191E+02  0.70182149943E+02  0.92875357153E+02  0.00000000000E+00 0. -1.
         22    1    1    2    0    0 -0.24927605935E+02  0.73287543093E+02  0.90062853005E+02  0.11875928175E+03  0.00000000000E+00 0.  1.
</event>
<event>
 6    1  0.4069520E-005  0.1710482E+03  0.7818608E-02  0.1222526E+00
          2   -1    0    0  502    0  0.00000000000E+00  0.00000000000E+00  0.67184481819E+02  0.67184481819E+02  0.00000000000E+00 0. -1.
          1   -1    0    0  501    0 -0.00000000000E+00 -0.00000000000E+00 -0.11650687863E+04  0.11650687863E+04  0.00000000000E+00 0. -1.
          2    1    1    2  501    0 -0.40574537024E+02  0.30784817151E+02 -0.15915730791E+03  0.16710788935E+03  0.00000000000E+00 0. -1.
          1    1    1    2  502    0  0.47367217373E+02 -0.47573440223E+01 -0.93636774446E+03  0.93757711068E+03  0.00000000000E+00 0. -1.
         22    1    1    2    0    0  0.54999483642E+02 -0.13905910946E+01 -0.20343201205E+02  0.58657674517E+02  0.00000000000E+00 0.  1.
         22    1    1    2    0    0 -0.61792163991E+02 -0.24636882034E+02  0.17983949063E+02  0.68910593604E+02  0.00000000000E+00 0. -1.
</event>
<event>
 6    1  0.4069520E-005  0.1241077E+03  0.7818608E-02  0.1256698E+00
          2   -1    0    0  502    0  0.00000000000E+00  0.00000000000E+00  0.45358425184E+03  0.45358425184E+03  0.00000000000E+00 0. -1.
          1   -1    0    0  501    0 -0.00000000000E+00 -0.00000000000E+00 -0.53866452482E+02  0.53866452482E+02  0.00000000000E+00 0. -1.
          2    1    1    2  501    0  0.74316679264E+02 -0.18645666976E+02  0.14236113921E+03  0.16167041681E+03  0.00000000000E+00 0. -1.
          1    1    1    2  502    0  0.36777754203E+02  0.15107725634E+02  0.30751370232E+01  0.39878603860E+02  0.00000000000E+00 0. -1.
         22    1    1    2    0    0 -0.13805325184E+02 -0.26841733803E+02  0.17279023662E+03  0.17540676027E+03  0.00000000000E+00 0. -1.
         22    1    1    2    0    0 -0.97289108284E+02  0.30379675145E+02  0.81491286499E+02  0.13049492338E+03  0.00000000000E+00 0. -1.
</event>
<event>
 6    1  0.4069520E-005  0.8916065E+02  0.7818608E-02  0.1309657E+00
          2   -1    0    0  502    0  0.00000000000E+00  0.00000000000E+00  0.11304882212E+03  0.11304882212E+03  0.00000000000E+00 0. -1.
          1   -1    0    0  501    0 -0.00000000000E+00 -0.00000000000E+00 -0.89918548698E+02  0.89918548698E+02  0.00000000000E+00 0.  1.
          2    1    1    2  501    0 -0.20947555431E+02 -0.14088255236E+01 -0.22835857834E+01  0.21118703367E+02  0.00000000000E+00 0. -1.
          1    1    1    2  502    0 -0.19078301045E+02 -0.41976577398E+02  0.98957665123E+01  0.47158676992E+02  0.00000000000E+00 0.  1.
         22    1    1    2    0    0 -0.21927949339E+02 -0.17591285666E+02  0.35710247607E+02  0.45447883094E+02  0.00000000000E+00 0. -1.
         22    1    1    2    0    0  0.61953805815E+02  0.60976688588E+02 -0.20192154918E+02  0.89242107361E+02  0.00000000000E+00 0.  1.
</event>
<event>
 6    1  0.4069520E-005  0.6743918E+02  0.7818608E-02  0.1421513E+00
          2   -1    0    0  502    0  0.00000000000E+00  0.00000000000E+00  0.11115379204E+03  0.11115379204E+03  0.00000000000E+00 0. -1.
          1   -1    0    0  501    0 -0.00000000000E+00 -0.00000000000E+00 -0.39423865919E+03  0.39423865919E+03  0.00000000000E+00 0. -1.
          2    1    1    2  501    0  0.23071274748E+02 -0.28226985586E+02 -0.11067632387E+02  0.38099067186E+02  0.00000000000E+00 0. -1.
          1    1    1    2  502    0 -0.47855154722E+02  0.68523642715E+01 -0.32201145091E+03  0.32562009343E+03  0.00000000000E+00 0. -1.
         22    1    1    2    0    0  0.51427204078E+02  0.94424558129E+01 -0.27346477454E+02  0.59006331187E+02  0.00000000000E+00 0. -1.
         22    1    1    2    0    0 -0.26643324104E+02  0.11932165501E+02  0.77340693608E+02  0.82666959425E+02  0.00000000000E+00 0. -1.
</event>
<event>
 6    1  0.4069520E-005  0.1571029E+03  0.7818608E-02  0.1245301E+00
          2   -1    0    0  502    0  0.00000000000E+00  0.00000000000E+00  0.13301131962E+03  0.13301131962E+03  0.00000000000E+00 0.  1.
          1   -1    0    0  501    0 -0.00000000000E+00 -0.00000000000E+00 -0.41005131175E+03  0.41005131175E+03  0.00000000000E+00 0. -1.
          2    1    1    2  501    0 -0.80115623337E+02  0.11190037096E+01 -0.59797804707E+02  0.99977711114E+02  0.00000000000E+00 0.  1.
          1    1    1    2  502    0  0.10164480113E+03  0.26871627222E+01 -0.28546470862E+03  0.30303297891E+03  0.00000000000E+00 0. -1.
         22    1    1    2    0    0  0.36094959328E+02  0.36245575997E+02  0.20094592046E+02  0.54957988480E+02  0.00000000000E+00 0.  1.
         22    1    1    2    0    0 -0.57624137122E+02 -0.40051742428E+02  0.48127929154E+02  0.85093952871E+02  0.00000000000E+00 0.  1.
</event>
<event>
 6    1  0.4069520E-005  0.8845483E+02  0.7818608E-02  0.1307964E+00
          2   -1    0    0  502    0  0.00000000000E+00  0.00000000000E+00  0.10138638128E+03  0.10138638128E+03  0.00000000000E+00 0. -1.
          1   -1    0    0  501    0 -0.00000000000E+00 -0.00000000000E+00 -0.88520677833E+03  0.88520677833E+03  0.00000000000E+00 0.  1.
          2    1    1    2  501    0 -0.48606247647E+02  0.74429459579E+01  0.21766630519E+02  0.53775003106E+02  0.00000000000E+00 0. -1.
          1    1    1    2  502    0 -0.15986649825E+02 -0.13037853944E+02 -0.78984158822E+03  0.79011093721E+03  0.00000000000E+00 0.  1.
         22    1    1    2    0    0 -0.32946026162E+02 -0.10772322020E+02  0.16891035636E+02  0.38558924342E+02  0.00000000000E+00 0. -1.
         22    1    1    2    0    0  0.97538923634E+02  0.16367230007E+02 -0.32636474982E+02  0.10414829495E+03  0.00000000000E+00 0. -1.
</event>
<event>
 6    1  0.4069520E-005  0.8091148E+02  0.7818608E-02  0.1377438E+00
          2   -1    0    0  502    0  0.00000000000E+00  0.00000000000E+00  0.19044818259E+03  0.19044818259E+03  0.00000000000E+00 0. -1.
          1   -1    0    0  501    0 -0.00000000000E+00 -0.00000000000E+00 -0.17531632491E+03  0.17531632491E+03  0.00000000000E+00 0. -1.
          2    1    1    2  501    0 -0.39633682944E+02  0.21788466532E+02 -0.18160537918E+02  0.48737780366E+02  0.00000000000E+00 0. -1.
          1    1    1    2  502    0  0.60479433911E+02 -0.33204936745E+02 -0.10508034822E+03  0.12570683885E+03  0.00000000000E+00 0. -1.
         22    1    1    2    0    0 -0.10653434374E+02  0.43847579906E+02 -0.36638817071E+01  0.45271734633E+02  0.00000000000E+00 0. -1.
         22    1    1    2    0    0 -0.10192316593E+02 -0.32431109693E+02  0.14203662552E+03  0.14604815365E+03  0.00000000000E+00 0. -1.
</event>
<event>
 6    1  0.4069520E-005  0.7787588E+02  0.7818608E-02  0.1347693E+00
          2   -1    0    0  502    0  0.00000000000E+00  0.00000000000E+00  0.21080111486E+03  0.21080111486E+03  0.00000000000E+00 0. -1.
          1   -1    0    0  501    0 -0.00000000000E+00 -0.00000000000E+00 -0.58669016084E+02  0.58669016084E+02  0.00000000000E+00 0. -1.
          2    1    1    2  501    0  0.28514257360E+02 -0.35515206700E+02  0.52150221832E+01  0.45843093657E+02  0.00000000000E+00 0. -1.
          1    1    1    2  502    0 -0.23649253150E+02  0.37619757277E+02  0.45013671855E+02  0.63251592597E+02  0.00000000000E+00 0. -1.
         22    1    1    2    0    0  0.18463519921E+02  0.50707007329E+02  0.84161515129E+02  0.99976311139E+02  0.00000000000E+00 0. -1.
         22    1    1    2    0    0 -0.23328524131E+02 -0.52811557905E+02  0.17741889605E+02  0.60399133548E+02  0.00000000000E+00 0. -1.
</event>
<event>
 6    1  0.4069520E-005  0.1455349E+03  0.7818608E-02  0.1222651E+00
          2   -1    0    0  502    0  0.00000000000E+00  0.00000000000E+00  0.32402800788E+03  0.32402800788E+03  0.00000000000E+00 0.  1.
          1   -1    0    0  501    0 -0.00000000000E+00 -0.00000000000E+00 -0.17409210291E+03  0.17409210291E+03  0.00000000000E+00 0.  1.
          2    1    1    2  501    0 -0.23607976416E+02  0.56900301663E+02  0.83825205859E+02  0.10402714077E+03  0.00000000000E+00 0.  1.
          1    1    1    2  502    0  0.17728229426E+03 -0.85184527154E+01 -0.37663991653E-01  0.17748683701E+03  0.00000000000E+00 0.  1.
         22    1    1    2    0    0  0.19984684384E+01  0.28216335583E+02  0.26227994816E+02  0.38575421993E+02  0.00000000000E+00 0. -1.
         22    1    1    2    0    0 -0.15567278628E+03 -0.76598184531E+02  0.39920368281E+02  0.17803071102E+03  0.00000000000E+00 0.  1.
</event>
<event>
 6    1  0.4069520E-005  0.7459387E+02  0.7818608E-02  0.1352235E+00
          2   -1    0    0  502    0  0.00000000000E+00  0.00000000000E+00  0.24981480888E+03  0.24981480888E+03  0.00000000000E+00 0. -1.
          1   -1    0    0  501    0 -0.00000000000E+00 -0.00000000000E+00 -0.19981436365E+03  0.19981436365E+03  0.00000000000E+00 0. -1.
          2    1    1    2  501    0  0.17477895578E+02 -0.25815653450E+02 -0.64091599836E+02  0.71271719261E+02  0.00000000000E+00 0. -1.
          1    1    1    2  502    0 -0.14023983267E+01  0.12642311924E+03 -0.59884693867E+02  0.13989620567E+03  0.00000000000E+00 0. -1.
         22    1    1    2    0    0  0.20186200018E+01 -0.23437655452E+02 -0.18743026204E+02  0.30078223868E+02  0.00000000000E+00 0.  1.
         22    1    1    2    0    0 -0.18094117253E+02 -0.77169810342E+02  0.19271976513E+03  0.20838302374E+03  0.00000000000E+00 0. -1.
</event>
<event>
 6    1  0.4069520E-005  0.5438307E+02  0.7818608E-02  0.1472791E+00
          2   -1    0    0  502    0  0.00000000000E+00  0.00000000000E+00  0.41392671408E+02  0.41392671408E+02  0.00000000000E+00 0. -1.
          1   -1    0    0  501    0 -0.00000000000E+00 -0.00000000000E+00 -0.72524363092E+03  0.72524363092E+03  0.00000000000E+00 0. -1.
          2    1    1    2  501    0  0.23017078446E+02 -0.67690440113E+01 -0.28723756789E+03  0.28823779465E+03  0.00000000000E+00 0. -1.
          1    1    1    2  502    0 -0.66784029482E+02  0.30572222996E+01 -0.31334358449E+03  0.32039609103E+03  0.00000000000E+00 0. -1.
         22    1    1    2    0    0  0.23710010047E+02  0.10827051922E+02  0.31722521158E+02  0.41057374227E+02  0.00000000000E+00 0. -1.
         22    1    1    2    0    0  0.20056940989E+02 -0.71152302106E+01 -0.11499232828E+03  0.11694504242E+03  0.00000000000E+00 0. -1.
</event>
<event>
 6    1  0.4069520E-005  0.1066139E+03  0.7818608E-02  0.1339284E+00
          2   -1    0    0  502    0  0.00000000000E+00  0.00000000000E+00  0.21201227423E+03  0.21201227423E+03  0.00000000000E+00 0.  1.
          1   -1    0    0  501    0 -0.00000000000E+00 -0.00000000000E+00 -0.16700299894E+03  0.16700299894E+03  0.00000000000E+00 0.  1.
          2    1    1    2  501    0 -0.42299363607E+02 -0.38833887351E+02 -0.46029967164E+02  0.73593918536E+02  0.00000000000E+00 0.  1.
          1    1    1    2  502    0  0.93898768144E+02  0.54808779667E+02 -0.41049432511E+02  0.11621547615E+03  0.00000000000E+00 0.  1.
         22    1    1    2    0    0 -0.28635668276E+02 -0.32453127125E+02 -0.99274179819E+01  0.44404510870E+02  0.00000000000E+00 0.  1.
         22    1    1    2    0    0 -0.22963736260E+02  0.16478234809E+02  0.14201609295E+03  0.14480136762E+03  0.00000000000E+00 0.  1.
</event>
<event>
 6    1  0.4069520E-005  0.1954909E+03  0.7818608E-02  0.1229250E+00
          2   -1    0    0  502    0  0.00000000000E+00  0.00000000000E+00  0.96144405931E+02  0.96144405931E+02  0.00000000000E+00 0.  1.
          1   -1    0    0  501    0 -0.00000000000E+00 -0.00000000000E+00 -0.10962962664E+04  0.10962962664E+04  0.00000000000E+00 0.  1.
          2    1    1    2  501    0  0.18298376800E+02 -0.18066588156E+03 -0.50553457973E+03  0.53715938292E+03  0.00000000000E+00 0.  1.
          1    1    1    2  502    0  0.13434420797E+02  0.19275373472E+03 -0.48643648371E+03  0.52340704866E+03  0.00000000000E+00 0.  1.
         22    1    1    2    0    0  0.50410978139E+01 -0.14210637062E+02 -0.63581847635E+02  0.65345284616E+02  0.00000000000E+00 0. -1.
         22    1    1    2    0    0 -0.36773895411E+02  0.21227839052E+01  0.55401050608E+02  0.66528956129E+02  0.00000000000E+00 0.  1.
</event>
<event>
 6    1  0.4069520E-005  0.1223503E+03  0.7818608E-02  0.1242686E+00
          2   -1    0    0  502    0  0.00000000000E+00  0.00000000000E+00  0.15010306765E+02  0.15010306765E+02  0.00000000000E+00 0. -1.
          1   -1    0    0  501    0 -0.00000000000E+00 -0.00000000000E+00 -0.14739984039E+04  0.14739984039E+04  0.00000000000E+00 0. -1.
          2    1    1    2  501    0 -0.10023376538E+03  0.30254724423E+02 -0.65385474580E+03  0.66218440384E+03  0.00000000000E+00 0. -1.
          1    1    1    2  502    0  0.30582310453E+02 -0.36291531489E+02 -0.19246092113E+03  0.19822603041E+03  0.00000000000E+00 0. -1.
         22    1    1    2    0    0  0.10309092470E+03  0.18768013160E+02 -0.45068395370E+03  0.46270509311E+03  0.00000000000E+00 0. -1.
         22    1    1    2    0    0 -0.33439469763E+02 -0.12731206095E+02 -0.16198847650E+03  0.16589318330E+03  0.00000000000E+00 0. -1.
</event>
<event>
 6    1  0.4069520E-005  0.8508571E+02  0.7818608E-02  0.1320453E+00
          2   -1    0    0  502    0  0.00000000000E+00  0.00000000000E+00  0.20439553790E+03  0.20439553790E+03  0.00000000000E+00 0.  1.
          1   -1    0    0  501    0 -0.00000000000E+00 -0.00000000000E+00 -0.23740384262E+03  0.23740384262E+03  0.00000000000E+00 0.  1.
          2    1    1    2  501    0  0.14615985274E+02 -0.34943645826E+02  0.29943323626E+02  0.48283413704E+02  0.00000000000E+00 0.  1.
          1    1    1    2  502    0 -0.19742909569E+02  0.11196847702E+02 -0.20185449921E+03  0.20312653871E+03  0.00000000000E+00 0.  1.
         22    1    1    2    0    0 -0.80284195488E+01  0.68230654732E+02  0.36107762273E+02  0.77612165683E+02  0.00000000000E+00 0.  1.
         22    1    1    2    0    0  0.13155343844E+02 -0.44483856607E+02  0.10279510859E+03  0.11277726243E+03  0.00000000000E+00 0. -1.
</event>
<event>
 6    1  0.4069520E-005  0.2155747E+03  0.7818608E-02  0.1247531E+00
          2   -1    0    0  502    0  0.00000000000E+00  0.00000000000E+00  0.29173723155E+03  0.29173723155E+03  0.00000000000E+00 0. -1.
          1   -1    0    0  501    0 -0.00000000000E+00 -0.00000000000E+00 -0.18098616598E+03  0.18098616598E+03  0.00000000000E+00 0. -1.
          2    1    1    2  501    0  0.69396884285E+02 -0.33816839331E+02  0.20869247008E+02  0.79968941730E+02  0.00000000000E+00 0. -1.
          1    1    1    2  502    0 -0.14041917342E+03 -0.70823281353E+02 -0.50728240138E+02  0.16524780117E+03  0.00000000000E+00 0. -1.
         22    1    1    2    0    0  0.67282105426E+02  0.12319744608E+03  0.74861712304E+02  0.15908729805E+03  0.00000000000E+00 0. -1.
         22    1    1    2    0    0  0.37401837089E+01 -0.18557325398E+02  0.65748346397E+02  0.68419356574E+02  0.00000000000E+00 0. -1.
</event>
<event>
 6    1  0.4069520E-005  0.7133480E+02  0.7818608E-02  0.1368046E+00
          2   -1    0    0  502    0  0.00000000000E+00  0.00000000000E+00  0.55741787528E+02  0.55741787528E+02  0.00000000000E+00 0. -1.
          1   -1    0    0  501    0 -0.00000000000E+00 -0.00000000000E+00 -0.14008919289E+04  0.14008919289E+04  0.00000000000E+00 0.  1.
          2    1    1    2  501    0  0.35960826773E+02 -0.29402462015E+02 -0.22110896947E+02  0.51444898664E+02  0.00000000000E+00 0. -1.
          1    1    1    2  502    0 -0.62895335270E+02  0.15379150679E+02 -0.12639948684E+04  0.12656521515E+04  0.00000000000E+00 0.  1.
         22    1    1    2    0    0  0.32454792930E+02 -0.43628616982E+02  0.32572817046E+01  0.54473660497E+02  0.00000000000E+00 0. -1.
         22    1    1    2    0    0 -0.55202844329E+01  0.57651928318E+02 -0.62301657720E+02  0.85063005670E+02  0.00000000000E+00 0.  1.
</event>
<event>
 6    1  0.4400704E-005  0.1602638E+03  0.7818608E-02  0.1273208E+00
          2   -1    0    0  502    0  0.00000000000E+00  0.00000000000E+00  0.51711268745E+03  0.51711268745E+03  0.00000000000E+00 0.  1.
          1   -1    0    0  501    0 -0.00000000000E+00 -0.00000000000E+00 -0.14845894241E+04  0.14845894241E+04  0.00000000000E+00 0. -1.
          2    1    1    2  501    0 -0.24034446081E+02  0.23446235109E+02  0.37793156157E+02  0.50553963164E+02  0.00000000000E+00 0.  1.
          1    1    1    2  502    0 -0.64678764828E+02  0.32141621205E+02 -0.14638240221E+04  0.14656047196E+04  0.00000000000E+00 0. -1.
         22    1    1    2    0    0 -0.18461014343E+02  0.20814350302E+02  0.89247410626E+02  0.93483402444E+02  0.00000000000E+00 0. -1.
         22    1    1    2    0    0  0.10717422525E+03 -0.76402206616E+02  0.36930671871E+03  0.39206002630E+03  0.00000000000E+00 0.  1.
</event>
<event>
 6    1  0.4069520E-005  0.4986610E+02  0.7818608E-02  0.1473347E+00
          2   -1    0    0  502    0  0.00000000000E+00  0.00000000000E+00  0.25449058635E+02  0.25449058635E+02  0.00000000000E+00 0.  1.
          1   -1    0    0  501    0 -0.00000000000E+00 -0.00000000000E+00 -0.52958960277E+03  0.52958960277E+03  0.00000000000E+00 0.  1.
          2    1    1    2  501    0 -0.11641630259E+02 -0.28492947232E+02 -0.92558219302E+02  0.97541783649E+02  0.00000000000E+00 0.  1.
          1    1    1    2  502    0  0.13242253034E+01  0.41394293994E+02 -0.25047463763E+03  0.25387553100E+03  0.00000000000E+00 0.  1.
         22    1    1    2    0    0  0.30844418370E+02  0.13179460480E+02  0.52804578754E+01  0.33955258186E+02  0.00000000000E+00 0.  1.
         22    1    1    2    0    0 -0.20527013414E+02 -0.26080807242E+02 -0.16638814508E+03  0.16966608857E+03  0.00000000000E+00 0.  1.
</event>
<event>
 6    1  0.4069520E-005  0.1168609E+03  0.7818608E-02  0.1289421E+00
          2   -1    0    0  502    0  0.00000000000E+00  0.00000000000E+00  0.48721181037E+02  0.48721181037E+02  0.00000000000E+00 0.  1.
          1   -1    0    0  501    0 -0.00000000000E+00 -0.00000000000E+00 -0.17382465596E+04  0.17382465596E+04  0.00000000000E+00 0.  1.
          2    1    1    2  501    0  0.18053337712E+02  0.57904716130E+02 -0.92532839325E+02  0.11063998150E+03  0.00000000000E+00 0.  1.
          1    1    1    2  502    0 -0.46222875275E+02 -0.95197169338E+02 -0.15092197927E+04  0.15129254569E+04  0.00000000000E+00 0.  1.
         22    1    1    2    0    0  0.22875125242E+02 -0.47522855658E+02 -0.30532382614E+02  0.60941935913E+02  0.00000000000E+00 0.  1.
         22    1    1    2    0    0  0.52944123211E+01  0.84815308866E+02 -0.57240363928E+02  0.10246036640E+03  0.00000000000E+00 0.  1.
</event>
<event>
 6    1  0.4069520E-005  0.2424390E+03  0.7818608E-02  0.1239933E+00
          2   -1    0    0  502    0  0.00000000000E+00  0.00000000000E+00  0.47882489942E+02  0.47882489942E+02  0.00000000000E+00 0. -1.
          1   -1    0    0  501    0 -0.00000000000E+00 -0.00000000000E+00 -0.25886877989E+04  0.25886877989E+04  0.00000000000E+00 0. -1.
          2    1    1    2  501    0 -0.19129043976E+03 -0.19381283610E+02 -0.51272041788E+03  0.54758551241E+03  0.00000000000E+00 0. -1.
          1    1    1    2  502    0  0.22745415141E+03  0.26677019620E+01 -0.18669526230E+04  0.18807590500E+04  0.00000000000E+00 0. -1.
         22    1    1    2    0    0 -0.87437258631E+01 -0.12816695757E+02  0.18490878157E+02  0.24137792093E+02  0.00000000000E+00 0. -1.
         22    1    1    2    0    0 -0.27419985796E+02  0.29530277405E+02 -0.17962314629E+03  0.18408793439E+03  0.00000000000E+00 0. -1.
</event>
<event>
 6    1  0.4069520E-005  0.2283600E+03  0.7818608E-02  0.1217158E+00
          2   -1    0    0  502    0  0.00000000000E+00  0.00000000000E+00  0.24761341556E+03  0.24761341556E+03  0.00000000000E+00 0.  1.
          1   -1    0    0  501    0 -0.00000000000E+00 -0.00000000000E+00 -0.43110575892E+03  0.43110575892E+03  0.00000000000E+00 0.  1.
          2    1    1    2  501    0 -0.48665834785E+02  0.21396057755E+02 -0.29229318372E+02  0.60667188951E+02  0.00000000000E+00 0.  1.
          1    1    1    2  502    0  0.10931901402E+03 -0.10673751331E+03 -0.33918745828E+03  0.37201031629E+03  0.00000000000E+00 0.  1.
         22    1    1    2    0    0 -0.38304751678E+02  0.10497516747E+03  0.18519033548E+03  0.21629262619E+03  0.00000000000E+00 0.  1.
         22    1    1    2    0    0 -0.22348427559E+02 -0.19633711917E+02 -0.26590219037E+00  0.29749043042E+02  0.00000000000E+00 0.  1.
</event>
<event>
 6    1  0.4069520E-005  0.1394232E+03  0.7818608E-02  0.1218779E+00
          2   -1    0    0  502    0  0.00000000000E+00  0.00000000000E+00  0.63862730382E+03  0.63862730382E+03  0.00000000000E+00 0. -1.
          1   -1    0    0  501    0 -0.00000000000E+00 -0.00000000000E+00 -0.43548414712E+03  0.43548414712E+03  0.00000000000E+00 0. -1.
          2    1    1    2  501    0 -0.80059997134E+01  0.11071300003E+03  0.11029323706E+03  0.15648023053E+03  0.00000000000E+00 0. -1.
          1    1    1    2  502    0 -0.32539315288E+02 -0.26449394013E+02 -0.39958058283E+03  0.40177483702E+03  0.00000000000E+00 0. -1.
         22    1    1    2    0    0  0.38213106533E+02 -0.11583176420E+03  0.39675638370E+03  0.41508175956E+03  0.00000000000E+00 0. -1.
         22    1    1    2    0    0  0.23322084681E+01  0.31568158185E+02  0.95674118775E+02  0.10077462384E+03  0.00000000000E+00 0. -1.
</event>
<event>
 6    1  0.4069520E-005  0.6284025E+03  0.7818608E-02  0.1072796E+00
          2   -1    0    0  502    0  0.00000000000E+00  0.00000000000E+00  0.60988223563E+03  0.60988223563E+03  0.00000000000E+00 0. -1.
          1   -1    0    0  501    0 -0.00000000000E+00 -0.00000000000E+00 -0.72056355484E+03  0.72056355484E+03  0.00000000000E+00 0. -1.
          2    1    1    2  501    0  0.40839073759E+03 -0.57644587421E+02 -0.56186677146E+02  0.41624852636E+03  0.00000000000E+00 0. -1.
          1    1    1    2  502    0 -0.60625546578E+03  0.19598315409E+03 -0.62401962892E+02  0.64019457312E+03  0.00000000000E+00 0. -1.
         22    1    1    2    0    0  0.16349747641E+03 -0.10826097148E+03 -0.47932661977E+02  0.20186481323E+03  0.00000000000E+00 0. -1.
         22    1    1    2    0    0  0.34367251782E+02 -0.30077595192E+02  0.55839982812E+02  0.72137877762E+02  0.00000000000E+00 0.  1.
</event>
<event>
 6    1  0.4069520E-005  0.3372270E+03  0.7818608E-02  0.1121393E+00
          2   -1    0    0  502    0  0.00000000000E+00  0.00000000000E+00  0.78991647273E+03  0.78991647273E+03  0.00000000000E+00 0. -1.
          1   -1    0    0  501    0 -0.00000000000E+00 -0.00000000000E+00 -0.27990736588E+03  0.27990736588E+03  0.00000000000E+00 0.  1.
          2    1    1    2  501    0  0.61885139457E+01  0.14758144295E+03  0.70676544529E+02  0.16374905787E+03  0.00000000000E+00 0. -1.
          1    1    1    2  502    0 -0.11071510912E+03 -0.24012122407E+03 -0.13926842901E+03  0.29885068672E+03  0.00000000000E+00 0.  1.
         22    1    1    2    0    0  0.98028492521E+02  0.96725143996E+01  0.26239328192E+03  0.28027375418E+03  0.00000000000E+00 0. -1.
         22    1    1    2    0    0  0.64981026538E+01  0.82867266717E+02  0.31620770940E+03  0.32695033983E+03  0.00000000000E+00 0. -1.
</event>
<event>
 6    1  0.5392653E-005  0.3928916E+02  0.7818608E-02  0.1544212E+00
          2   -1    0    0  502    0  0.00000000000E+00  0.00000000000E+00  0.13772277136E+03  0.13772277136E+03  0.00000000000E+00 0. -1.
          1   -1    0    0  501    0 -0.00000000000E+00 -0.00000000000E+00 -0.78960859696E+03  0.78960859696E+03  0.00000000000E+00 0.  1.
          2    1    1    2  501    0 -0.24110070889E+02  0.57687404951E+01 -0.77888294170E+01  0.25985375673E+02  0.00000000000E+00 0. -1.
          1    1    1    2  502    0  0.32538570231E+02 -0.18732896189E+01 -0.74363132738E+03  0.74434522826E+03  0.00000000000E+00 0.  1.
         22    1    1    2    0    0  0.58946651418E+01 -0.25512856043E+02  0.12071240345E+03  0.12351978485E+03  0.00000000000E+00 0. -1.
         22    1    1    2    0    0 -0.14323164483E+02  0.21617405166E+02 -0.21178072255E+02  0.33480979547E+02  0.00000000000E+00 0. -1.
</event>
<event>
 6    1  0.4069520E-005  0.1369318E+03  0.7818608E-02  0.1266979E+00
          2   -1    0    0  502    0  0.00000000000E+00  0.00000000000E+00  0.15668289905E+03  0.15668289905E+03  0.00000000000E+00 0.  1.
          1   -1    0    0  501    0 -0.00000000000E+00 -0.00000000000E+00 -0.19461339743E+04  0.19461339743E+04  0.00000000000E+00 0. -1.
          2    1    1    2  501    0  0.87826364097E+02 -0.42257533041E+02 -0.38839241189E+02  0.10491737695E+03  0.00000000000E+00 0.  1.
          1    1    1    2  502    0 -0.10514108033E+03  0.78359265716E+02 -0.18352767543E+04  0.18399553218E+04  0.00000000000E+00 0. -1.
         22    1    1    2    0    0  0.41273868362E+02  0.81408039032E+01 -0.16316702306E+02  0.45122496295E+02  0.00000000000E+00 0.  1.
         22    1    1    2    0    0 -0.23959152127E+02 -0.44242536578E+02  0.10098162253E+03  0.11282167833E+03  0.00000000000E+00 0.  1.
</event>
<event>
 6    1  0.4069520E-005  0.1182763E+03  0.7818608E-02  0.1315785E+00
          2   -1    0    0  502    0  0.00000000000E+00  0.00000000000E+00  0.63726794033E+02  0.63726794033E+02  0.00000000000E+00 0. -1.
          1   -1    0    0  501    0 -0.00000000000E+00 -0.00000000000E+00 -0.42947295877E+03  0.42947295877E+03  0.00000000000E+00 0.  1.
          2    1    1    2  501    0 -0.28433226606E+02  0.59145695563E+02 -0.42802910261E+01  0.65764599673E+02  0.00000000000E+00 0. -1.
          1    1    1    2  502    0  0.97241882552E+01 -0.88562657755E+02 -0.21166579059E+03  0.22965258782E+03  0.00000000000E+00 0.  1.
         22    1    1    2    0    0  0.42303278446E+02  0.50059099728E+02 -0.26727846062E+02  0.70780354534E+02  0.00000000000E+00 0.  1.
         22    1    1    2    0    0 -0.23594240096E+02 -0.20642137536E+02 -0.12307223706E+03  0.12700221078E+03  0.00000000000E+00 0. -1.
</event>
<event>
 6    1  0.4069520E-005  0.5961117E+02  0.7818608E-02  0.1405387E+00
          2   -1    0    0  502    0  0.00000000000E+00  0.00000000000E+00  0.13017031150E+03  0.13017031150E+03  0.00000000000E+00 0. -1.
          1   -1    0    0  501    0 -0.00000000000E+00 -0.00000000000E+00 -0.20134484051E+03  0.20134484051E+03  0.00000000000E+00 0. -1.
          2    1    1    2  501    0  0.12329307985E+02  0.53487850212E+02 -0.12522097630E+03  0.13672327842E+03  0.00000000000E+00 0. -1.
          1    1    1    2  502    0 -0.50488571500E+02 -0.17226059729E+02  0.15395363640E+02  0.55523420351E+02  0.00000000000E+00 0. -1.
         22    1    1    2    0    0  0.20675433164E+02 -0.50310908491E+02  0.77337611371E+02  0.94550342052E+02  0.00000000000E+00 0. -1.
         22    1    1    2    0    0  0.17483830351E+02  0.14049118009E+02 -0.38686527718E+02  0.44718111179E+02  0.00000000000E+00 0. -1.
</event>
<event>
 6    1  0.4069520E-005  0.1375211E+03  0.7818608E-02  0.1238722E+00
          2   -1    0    0  502    0  0.00000000000E+00  0.00000000000E+00  0.24102730065E+03  0.24102730065E+03  0.00000000000E+00 0.  1.
          1   -1    0    0  501    0 -0.00000000000E+00 -0.00000000000E+00 -0.29709398475E+03  0.29709398475E+03  0.00000000000E+00 0.  1.
          2    1    1    2  501    0 -0.78954515218E+02 -0.81256383443E+02 -0.43281365162E+02  0.12128351864E+03  0.00000000000E+00 0.  1.
          1    1    1    2  502    0  0.13208385955E+03  0.32707352857E+02 -0.15982279492E+03  0.20990293628E+03  0.00000000000E+00 0.  1.
         22    1    1    2    0    0  0.11999810163E+02 -0.93228340420E+01 -0.16007214662E+02  0.22071284506E+02  0.00000000000E+00 0. -1.
         22    1    1    2    0    0 -0.65129154492E+02  0.57871864628E+02  0.16304469065E+03  0.18486354597E+03  0.00000000000E+00 0.  1.
</event>
<event>
 6    1  0.4069520E-005  0.3164296E+02  0.7818608E-02  0.1593703E+00
          2   -1    0    0  502    0  0.00000000000E+00  0.00000000000E+00  0.10737572519E+03  0.10737572519E+03  0.00000000000E+00 0. -1.
          1   -1    0    0  501    0 -0.00000000000E+00 -0.00000000000E+00 -0.20397532560E+04  0.20397532560E+04  0.00000000000E+00 0.  1.
          2    1    1    2  501    0 -0.17728030964E+02 -0.92779816958E+01 -0.33376218645E+02  0.38914470281E+02  0.00000000000E+00 0. -1.
          1    1    1    2  502    0  0.24627764118E+02  0.12671597269E+02 -0.19655303132E+04  0.19657254407E+04  0.00000000000E+00 0.  1.
         22    1    1    2    0    0 -0.32076799440E+02 -0.13030478644E+02 -0.27788190837E+02  0.44394796835E+02  0.00000000000E+00 0.  1.
         22    1    1    2    0    0  0.25177066287E+02  0.96368630701E+01  0.94317191841E+02  0.98094273398E+02  0.00000000000E+00 0. -1.
</event>
<event>
 6    1  0.4069520E-005  0.1314542E+03  0.7818608E-02  0.1232106E+00
          2   -1    0    0  502    0  0.00000000000E+00  0.00000000000E+00  0.75803697350E+03  0.75803697350E+03  0.00000000000E+00 0. -1.
          1   -1    0    0  501    0 -0.00000000000E+00 -0.00000000000E+00 -0.57371100833E+02  0.57371100833E+02  0.00000000000E+00 0. -1.
          2    1    1    2  501    0 -0.65241910623E+02  0.82650179927E+02  0.51794968272E+03  0.52854463669E+03  0.00000000000E+00 0. -1.
          1    1    1    2  502    0  0.25189486396E+02 -0.39628370235E+02 -0.96955441836E+01  0.47947070081E+02  0.00000000000E+00 0. -1.
         22    1    1    2    0    0  0.74914043969E+02 -0.36843486183E+02  0.62556240617E+02  0.10432084978E+03  0.00000000000E+00 0. -1.
         22    1    1    2    0    0 -0.34861619742E+02 -0.61783235087E+01  0.12985549352E+03  0.13459551779E+03  0.00000000000E+00 0.  1.
</event>
<event>
 6    1  0.4069520E-005  0.1409398E+03  0.7818608E-02  0.1224768E+00
          2   -1    0    0  502    0  0.00000000000E+00  0.00000000000E+00  0.56379233957E+02  0.56379233957E+02  0.00000000000E+00 0. -1.
          1   -1    0    0  501    0 -0.00000000000E+00 -0.00000000000E+00 -0.10043534210E+04  0.10043534210E+04  0.00000000000E+00 0.  1.
          2    1    1    2  501    0 -0.41445259199E+02  0.93647452370E+02 -0.77598840550E+02  0.12848787842E+03  0.00000000000E+00 0. -1.
          1    1    1    2  502    0 -0.66974763982E+02 -0.95955149611E+02 -0.62808232323E+03  0.63888998623E+03  0.00000000000E+00 0.  1.
         22    1    1    2    0    0 -0.18521897035E+02  0.63950042708E+01 -0.10301710038E+03  0.10486410120E+03  0.00000000000E+00 0. -1.
         22    1    1    2    0    0  0.12694192022E+03 -0.40873070297E+01 -0.13927592287E+03  0.18849068911E+03  0.00000000000E+00 0.  1.
</event>
<event>
 6    1  0.4069520E-005  0.5483298E+02  0.7818608E-02  0.1474506E+00
          2   -1    0    0  502    0  0.00000000000E+00  0.00000000000E+00  0.16798598168E+03  0.16798598168E+03  0.00000000000E+00 0.  1.
          1   -1    0    0  501    0 -0.00000000000E+00 -0.00000000000E+00 -0.15737380866E+03  0.15737380866E+03  0.00000000000E+00 0. -1.
          2    1    1    2  501    0  0.44548278347E+01  0.35358162519E+02 -0.26738250938E+02  0.44553105514E+02  0.00000000000E+00 0.  1.
          1    1    1    2  502    0 -0.13952886323E+02 -0.38031129014E+02 -0.92947391581E+02  0.10139165356E+03  0.00000000000E+00 0. -1.
         22    1    1    2    0    0 -0.19410768368E+02 -0.15459052833E+02  0.14137600809E+03  0.14353722830E+03  0.00000000000E+00 0.  1.
         22    1    1    2    0    0  0.28908826856E+02  0.18132019327E+02 -0.11078192552E+02  0.35877802961E+02  0.00000000000E+00 0.  1.
</event>
<event>
 6    1  0.4069520E-005  0.1233729E+03  0.7818608E-02  0.1354887E+00
          2   -1    0    0  502    0  0.00000000000E+00  0.00000000000E+00  0.41179157694E+02  0.41179157694E+02  0.00000000000E+00 0. -1.
          1   -1    0    0  501    0 -0.00000000000E+00 -0.00000000000E+00 -0.13971235361E+04  0.13971235361E+04  0.00000000000E+00 0. -1.
          2    1    1    2  501    0  0.16062673855E+02 -0.70870380761E+02 -0.11603217619E+03  0.13690904379E+03  0.00000000000E+00 0. -1.
          1    1    1    2  502    0 -0.13768322451E+02  0.10951293806E+03 -0.11130309741E+04  0.11184903217E+04  0.00000000000E+00 0. -1.
         22    1    1    2    0    0  0.11937824996E+02 -0.72359776955E+01  0.24199829696E+02  0.27937480132E+02  0.00000000000E+00 0.  1.
         22    1    1    2    0    0 -0.14232176399E+02 -0.31406579601E+02 -0.15108105780E+03  0.15496584821E+03  0.00000000000E+00 0.  1.
</event>
<event>
 6    1  0.4069520E-005  0.3165848E+03  0.7818608E-02  0.1171586E+00
          2   -1    0    0  502    0  0.00000000000E+00  0.00000000000E+00  0.73936118858E+03  0.73936118858E+03  0.00000000000E+00 0.  1.
          1   -1    0    0  501    0 -0.00000000000E+00 -0.00000000000E+00 -0.19291867810E+03  0.19291867810E+03  0.00000000000E+00 0.  1.
          2    1    1    2  501    0  0.13759387270E+03 -0.26800098189E+02  0.58264563016E+03  0.59927143216E+03  0.00000000000E+00 0.  1.
          1    1    1    2  502    0 -0.15268025006E+03  0.32471541198E+02 -0.10720179888E+03  0.18936178450E+03  0.00000000000E+00 0.  1.
         22    1    1    2    0    0  0.22145088287E+02  0.23836441858E+02 -0.26231110995E+02  0.41792966869E+02  0.00000000000E+00 0.  1.
         22    1    1    2    0    0 -0.70587109205E+01 -0.29507884866E+02  0.97229790201E+02  0.10185368315E+03  0.00000000000E+00 0. -1.
</event>
<event>
 6    1  0.4069520E-005  0.7445893E+02  0.7818608E-02  0.1346701E+00
          2   -1    0    0  502    0  0.00000000000E+00  0.00000000000E+00  0.46708793676E+03  0.46708793676E+03  0.00000000000E+00 0.  1.
          1   -1    0    0  501    0 -0.00000000000E+00 -0.00000000000E+00 -0.10412188081E+03  0.10412188081E+03  0.00000000000E+00 0. -1.
          2    1    1    2  501    0 -0.37662971259E+01  0.21655218000E+02  0.62723118029E+02  0.66462944532E+02  0.00000000000E+00 0.  1.
          1    1    1    2  502    0  0.26032685139E+02 -0.40893581124E+01 -0.90131344502E+02  0.93904647419E+02  0.00000000000E+00 0. -1.
         22    1    1    2    0    0  0.97716162879E+01 -0.67758420695E+02  0.20280695441E+03  0.21404987460E+03  0.00000000000E+00 0.  1.
         22    1    1    2    0    0 -0.32038004301E+02  0.50192560808E+02  0.18756732802E+03  0.19679235102E+03  0.00000000000E+00 0.  1.
</event>
<event>
 6    1  0.4069520E-005  0.9412217E+02  0.7818608E-02  0.1299006E+00
          2   -1    0    0  502    0  0.00000000000E+00  0.00000000000E+00  0.50249294954E+02  0.50249294954E+02  0.00000000000E+00 0. -1.
          1   -1    0    0  501    0 -0.00000000000E+00 -0.00000000000E+00 -0.33583257912E+03  0.33583257912E+03  0.00000000000E+00 0. -1.
          2    1    1    2  501    0 -0.13327665564E+02 -0.27565286576E+02 -0.16549844134E+03  0.16830687977E+03  0.00000000000E+00 0. -1.
          1    1    1    2  502    0  0.38890331014E+02  0.30897064946E+02 -0.26611189311E+02  0.56349284514E+02  0.00000000000E+00 0. -1.
         22    1    1    2    0    0  0.50236189699E+02  0.22112009655E+00 -0.60636680762E+02  0.78743448638E+02  0.00000000000E+00 0. -1.
         22    1    1    2    0    0 -0.75798855149E+02 -0.35528984660E+01 -0.32836972756E+02  0.82682261151E+02  0.00000000000E+00 0. -1.
</event>
<event>
 6    1  0.4069520E-005  0.8376555E+02  0.7818608E-02  0.1433941E+00
          2   -1    0    0  502    0  0.00000000000E+00  0.00000000000E+00  0.66519992518E+02  0.66519992518E+02  0.00000000000E+00 0. -1.
          1   -1    0    0  501    0 -0.00000000000E+00 -0.00000000000E+00 -0.11870104742E+04  0.11870104742E+04  0.00000000000E+00 0.  1.
          2    1    1    2  501    0 -0.22336062632E+02  0.10396730050E+02 -0.15476178395E+02  0.29094738138E+02  0.00000000000E+00 0. -1.
          1    1    1    2  502    0  0.33553511109E+02  0.48963192796E+02 -0.10844998278E+04  0.10861229714E+04  0.00000000000E+00 0.  1.
         22    1    1    2    0    0  0.12608971741E+02 -0.17684425907E+00  0.45078994726E+02  0.46809541845E+02  0.00000000000E+00 0. -1.
         22    1    1    2    0    0 -0.23826420219E+02 -0.59183078586E+02 -0.65593470153E+02  0.91503215343E+02  0.00000000000E+00 0. -1.
</event>
<event>
 6    1  0.4069520E-005  0.7172994E+02  0.7818608E-02  0.1424879E+00
          2   -1    0    0  502    0  0.00000000000E+00  0.00000000000E+00  0.10395773032E+03  0.10395773032E+03  0.00000000000E+00 0.  1.
          1   -1    0    0  501    0 -0.00000000000E+00 -0.00000000000E+00 -0.21837147741E+03  0.21837147741E+03  0.00000000000E+00 0. -1.
          2    1    1    2  501    0 -0.42374838172E+02  0.39187134901E+02 -0.86516682351E+02  0.10400189795E+03  0.00000000000E+00 0.  1.
          1    1    1    2  502    0  0.12325050236E+02 -0.21087253101E+02 -0.74208140146E+02  0.78124433890E+02  0.00000000000E+00 0. -1.
         22    1    1    2    0    0  0.70316983010E+01 -0.21943469634E+02  0.88792419198E+02  0.91733605334E+02  0.00000000000E+00 0.  1.
         22    1    1    2    0    0  0.23018089635E+02  0.38435878334E+01 -0.42481343794E+02  0.48469270558E+02  0.00000000000E+00 0.  1.
</event>
<event>
 6    1  0.4069520E-005  0.1933436E+03  0.7818608E-02  0.1202595E+00
          2   -1    0    0  502    0  0.00000000000E+00  0.00000000000E+00  0.18290752903E+03  0.18290752903E+03  0.00000000000E+00 0.  1.
          1   -1    0    0  501    0 -0.00000000000E+00 -0.00000000000E+00 -0.22625090155E+03  0.22625090155E+03  0.00000000000E+00 0.  1.
          2    1    1    2  501    0 -0.36226683832E+02  0.62621788213E+02  0.17016954486E+02  0.74319833964E+02  0.00000000000E+00 0.  1.
          1    1    1    2  502    0  0.47538616473E+02  0.96897298584E+02 -0.78546443184E+02  0.13348614260E+03  0.00000000000E+00 0.  1.
         22    1    1    2    0    0 -0.39730530448E+02 -0.98957662818E+02 -0.38798436841E+02  0.11347445872E+03  0.00000000000E+00 0.  1.
         22    1    1    2    0    0  0.28418597807E+02 -0.60561423980E+02  0.56984553012E+02  0.87877995299E+02  0.00000000000E+00 0.  1.
</event>
<event>
 6    1  0.4069520E-005  0.3469741E+03  0.7818608E-02  0.1203251E+00
          2   -1    0    0  502    0  0.00000000000E+00  0.00000000000E+00  0.54730823733E+02  0.54730823733E+02  0.00000000000E+00 0.  1.
          1   -1    0    0  501    0 -0.00000000000E+00 -0.00000000000E+00 -0.11595112568E+04  0.11595112568E+04  0.00000000000E+00 0.  1.
          2    1    1    2  501    0 -0.11824210808E+03  0.69409008084E+02 -0.12652443023E+03  0.18656697985E+03  0.00000000000E+00 0.  1.
          1    1    1    2  502    0 -0.54042954371E+02 -0.24095499749E+02 -0.49535231048E+03  0.49887387737E+03  0.00000000000E+00 0.  1.
         22    1    1    2    0    0 -0.42563573983E+01 -0.10588433549E+02  0.20065000759E+01  0.11586955850E+02  0.00000000000E+00 0. -1.
         22    1    1    2    0    0  0.17654141985E+03 -0.34725074786E+02 -0.48491019244E+03  0.51721426747E+03  0.00000000000E+00 0.  1.
</event>
<event>
 6    1  0.4069520E-005  0.1035959E+03  0.7818608E-02  0.1317506E+00
          2   -1    0    0  502    0  0.00000000000E+00  0.00000000000E+00  0.64282996951E+02  0.64282996951E+02  0.00000000000E+00 0. -1.
          1   -1    0    0  501    0 -0.00000000000E+00 -0.00000000000E+00 -0.58995648915E+03  0.58995648915E+03  0.00000000000E+00 0. -1.
          2    1    1    2  501    0 -0.14008207127E+02  0.30478318890E+02 -0.14518265295E+03  0.14900724985E+03  0.00000000000E+00 0. -1.
          1    1    1    2  502    0  0.50183300149E+02  0.21721747573E+02 -0.36056293898E+03  0.36468593460E+03  0.00000000000E+00 0. -1.
         22    1    1    2    0    0  0.23504931551E+02 -0.38648247887E+02  0.35868473181E+02  0.57729682489E+02  0.00000000000E+00 0. -1.
         22    1    1    2    0    0 -0.59680024573E+02 -0.13551818576E+02 -0.55796373460E+02  0.82816619171E+02  0.00000000000E+00 0. -1.
</event>
<event>
 6    1  0.4069520E-005  0.7551430E+02  0.7818608E-02  0.1386098E+00
          2   -1    0    0  502    0  0.00000000000E+00  0.00000000000E+00  0.37808159436E+03  0.37808159436E+03  0.00000000000E+00 0. -1.
          1   -1    0    0  501    0 -0.00000000000E+00 -0.00000000000E+00 -0.13066769526E+03  0.13066769526E+03  0.00000000000E+00 0. -1.
          2    1    1    2  501    0  0.76389676311E+01  0.24541102182E+02  0.99430602397E+02  0.10269890075E+03  0.00000000000E+00 0. -1.
          1    1    1    2  502    0 -0.57622145806E+02  0.40879022352E+01 -0.10380799447E+03  0.11879866307E+03  0.00000000000E+00 0. -1.
         22    1    1    2    0    0  0.67919950092E+02  0.29559876970E+01  0.23941204187E+03  0.24887744630E+03  0.00000000000E+00 0. -1.
         22    1    1    2    0    0 -0.17936771917E+02 -0.31584992114E+02  0.12379249300E+02  0.38374279497E+02  0.00000000000E+00 0.  1.
</event>
<event>
 6    1  0.4069520E-005  0.1045692E+03  0.7818608E-02  0.1330276E+00
          2   -1    0    0  502    0  0.00000000000E+00  0.00000000000E+00  0.29995812125E+03  0.29995812125E+03  0.00000000000E+00 0. -1.
          1   -1    0    0  501    0 -0.00000000000E+00 -0.00000000000E+00 -0.12288832893E+04  0.12288832893E+04  0.00000000000E+00 0. -1.
          2    1    1    2  501    0 -0.22525968224E+02 -0.22686658092E+02  0.88373397118E+01  0.33169297143E+02  0.00000000000E+00 0. -1.
          1    1    1    2  502    0  0.81052440293E+02  0.18975741563E+02 -0.11984605608E+04  0.12013481146E+04  0.00000000000E+00 0. -1.
         22    1    1    2    0    0  0.33592340291E+02  0.10031277692E+02  0.12763520748E+03  0.13236244954E+03  0.00000000000E+00 0. -1.
         22    1    1    2    0    0 -0.92118812360E+02 -0.63203611634E+01  0.13306284554E+03  0.16196154920E+03  0.00000000000E+00 0. -1.
</event>
<event>
 6    1  0.4069520E-005  0.7052253E+02  0.7818608E-02  0.1426528E+00
          2   -1    0    0  502    0  0.00000000000E+00  0.00000000000E+00  0.63703209914E+02  0.63703209914E+02  0.00000000000E+00 0.  1.
          1   -1    0    0  501    0 -0.00000000000E+00 -0.00000000000E+00 -0.76964674571E+03  0.76964674571E+03  0.00000000000E+00 0.  1.
          2    1    1    2  501    0  0.33858487307E+02 -0.73304527422E+01 -0.32207201696E+02  0.47301549036E+02  0.00000000000E+00 0.  1.
          1    1    1    2  502    0 -0.57585612250E+01  0.40400136897E+02 -0.64513337067E+03  0.64642277036E+03  0.00000000000E+00 0.  1.
         22    1    1    2    0    0 -0.21021371459E+02  0.10823515079E+02  0.46604530864E+02  0.52259246394E+02  0.00000000000E+00 0.  1.
         22    1    1    2    0    0 -0.70785546231E+01 -0.43893199233E+02 -0.75207494297E+02  0.87366389836E+02  0.00000000000E+00 0.  1.
</event>
<event>
 6    1  0.4069520E-005  0.9034113E+02  0.7818608E-02  0.1360955E+00
          2   -1    0    0  502    0  0.00000000000E+00  0.00000000000E+00  0.22716113802E+02  0.22716113802E+02  0.00000000000E+00 0. -1.
          1   -1    0    0  501    0 -0.00000000000E+00 -0.00000000000E+00 -0.19412730193E+04  0.19412730193E+04  0.00000000000E+00 0. -1.
          2    1    1    2  501    0  0.39202015282E+02 -0.17810841443E+02 -0.99960319811E+02  0.10883974280E+03  0.00000000000E+00 0. -1.
          1    1    1    2  502    0 -0.51448528697E+02  0.65859693200E+02 -0.15824931551E+04  0.15846984055E+04  0.00000000000E+00 0. -1.
         22    1    1    2    0    0  0.40362547624E+02 -0.32569044295E+02 -0.23242951988E+03  0.23814566888E+03  0.00000000000E+00 0. -1.
         22    1    1    2    0    0 -0.28116034210E+02 -0.15479807461E+02 -0.36739106805E+01  0.32305315947E+02  0.00000000000E+00 0. -1.
</event>
<event>
 6    1  0.4069520E-005  0.1286584E+03  0.7818608E-02  0.1260490E+00
          2   -1    0    0  502    0  0.00000000000E+00  0.00000000000E+00  0.71914597538E+02  0.71914597538E+02  0.00000000000E+00 0.  1.
          1   -1    0    0  501    0 -0.00000000000E+00 -0.00000000000E+00 -0.55043562644E+03  0.55043562644E+03  0.00000000000E+00 0.  1.
          2    1    1    2  501    0 -0.63424785302E+02 -0.62747330081E+02 -0.31300085808E+03  0.32546807521E+03  0.00000000000E+00 0.  1.
          1    1    1    2  502    0  0.10703726356E+02  0.24520435836E+02 -0.15497938844E+03  0.15727184227E+03  0.00000000000E+00 0.  1.
         22    1    1    2    0    0  0.21109705022E+02  0.64118403659E+02  0.36954182495E+02  0.76957137016E+02  0.00000000000E+00 0.  1.
         22    1    1    2    0    0  0.31611353923E+02 -0.25891509414E+02 -0.47494964878E+02  0.62653169476E+02  0.00000000000E+00 0.  1.
</event>
<event>
 6    1  0.4069520E-005  0.1044462E+03  0.7818608E-02  0.1297860E+00
          2   -1    0    0  502    0  0.00000000000E+00  0.00000000000E+00  0.26050140052E+02  0.26050140052E+02  0.00000000000E+00 0. -1.
          1   -1    0    0  501    0 -0.00000000000E+00 -0.00000000000E+00 -0.65548182042E+03  0.65548182042E+03  0.00000000000E+00 0. -1.
          2    1    1    2  501    0  0.23727243348E+02  0.11405236558E+02 -0.72670695561E+02  0.77292247290E+02  0.00000000000E+00 0. -1.
          1    1    1    2  502    0  0.54343834615E+02 -0.45512188188E+02 -0.26502460721E+03  0.27434039816E+03  0.00000000000E+00 0. -1.
         22    1    1    2    0    0 -0.68370597981E+02 -0.28273067166E+02 -0.22997311403E+03  0.24158132828E+03  0.00000000000E+00 0.  1.
         22    1    1    2    0    0 -0.97004799818E+01  0.62380018796E+02 -0.61763263568E+02  0.88317986749E+02  0.00000000000E+00 0. -1.
</event>
<event>
 6    1  0.4069520E-005  0.1254160E+03  0.7818608E-02  0.1253315E+00
          2   -1    0    0  502    0  0.00000000000E+00  0.00000000000E+00  0.48950124489E+02  0.48950124489E+02  0.00000000000E+00 0.  1.
          1   -1    0    0  501    0 -0.00000000000E+00 -0.00000000000E+00 -0.10879295577E+04  0.10879295577E+04  0.00000000000E+00 0.  1.
          2    1    1    2  501    0  0.36900986905E+02 -0.24435135320E+02 -0.12534046503E+03  0.13292475633E+03  0.00000000000E+00 0.  1.
          1    1    1    2  502    0  0.46991583303E+02  0.64120650765E+02 -0.81165991915E+03  0.81554367824E+03  0.00000000000E+00 0.  1.
         22    1    1    2    0    0 -0.10480001262E+03 -0.80068351356E+01 -0.10716223568E+03  0.15010295404E+03  0.00000000000E+00 0.  1.
         22    1    1    2    0    0  0.20907442414E+02 -0.31678680310E+02  0.51831866381E+01  0.38308293595E+02  0.00000000000E+00 0.  1.
</event>
<event>
 6    1  0.4069520E-005  0.5434513E+02  0.7818608E-02  0.1444049E+00
          2   -1    0    0  502    0  0.00000000000E+00  0.00000000000E+00  0.31677972761E+02  0.31677972761E+02  0.00000000000E+00 0.  1.
          1   -1    0    0  501    0 -0.00000000000E+00 -0.00000000000E+00 -0.71379646203E+03  0.71379646203E+03  0.00000000000E+00 0.  1.
          2    1    1    2  501    0  0.27704821525E+01  0.35488609279E+02 -0.30175372451E+03  0.30384605842E+03  0.00000000000E+00 0.  1.
          1    1    1    2  502    0  0.73025923870E+01 -0.25661465171E+02 -0.27141431052E+03  0.27272250843E+03  0.00000000000E+00 0.  1.
         22    1    1    2    0    0  0.24430365134E+02  0.93974756499E+01 -0.12392915490E+03  0.12666329667E+03  0.00000000000E+00 0. -1.
         22    1    1    2    0    0 -0.34503439674E+02 -0.19224619758E+02  0.14978700661E+02  0.42242571272E+02  0.00000000000E+00 0.  1.
</event>
<event>
 6    1  0.4069520E-005  0.3061105E+03  0.7818608E-02  0.1201724E+00
          2   -1    0    0  502    0  0.00000000000E+00  0.00000000000E+00  0.38363949544E+03  0.38363949544E+03  0.00000000000E+00 0.  1.
          1   -1    0    0  501    0 -0.00000000000E+00 -0.00000000000E+00 -0.36929985263E+03  0.36929985263E+03  0.00000000000E+00 0.  1.
          2    1    1    2  501    0  0.13085941172E+03 -0.22838009974E+03 -0.11096390969E+03  0.28564776360E+03  0.00000000000E+00 0.  1.
          1    1    1    2  502    0 -0.13128943648E+03  0.27898485717E+03  0.54311889653E+02  0.31308025812E+03  0.00000000000E+00 0.  1.
         22    1    1    2    0    0  0.10610093246E+02 -0.36769438182E+02 -0.31945663081E+02  0.49850687584E+02  0.00000000000E+00 0.  1.
         22    1    1    2    0    0 -0.10180068485E+02 -0.13835319246E+02  0.10293732593E+03  0.10436063876E+03  0.00000000000E+00 0.  1.
</event>
<event>
 6    1  0.4069520E-005  0.1008356E+03  0.7818608E-02  0.1280276E+00
          2   -1    0    0  502    0  0.00000000000E+00  0.00000000000E+00  0.41050916500E+03  0.41050916500E+03  0.00000000000E+00 0. -1.
          1   -1    0    0  501    0 -0.00000000000E+00 -0.00000000000E+00 -0.24504516778E+03  0.24504516778E+03  0.00000000000E+00 0. -1.
          2    1    1    2  501    0  0.65390594333E+02 -0.36789866389E+02  0.13883324252E+03  0.15781030804E+03  0.00000000000E+00 0. -1.
          1    1    1    2  502    0 -0.37594811649E+02  0.18194303527E+02 -0.21786361707E+03  0.22183092252E+03  0.00000000000E+00 0. -1.
         22    1    1    2    0    0 -0.62061969269E+02  0.47595206848E+02  0.11688485110E+03  0.14063804663E+03  0.00000000000E+00 0. -1.
         22    1    1    2    0    0  0.34266186585E+02 -0.28999643985E+02  0.12760952068E+03  0.13527505559E+03  0.00000000000E+00 0.  1.
</event>
<event>
 6    1  0.4069520E-005  0.1067665E+03  0.7818608E-02  0.1270385E+00
          2   -1    0    0  502    0  0.00000000000E+00  0.00000000000E+00  0.67426507418E+03  0.67426507418E+03  0.00000000000E+00 0.  1.
          1   -1    0    0  501    0 -0.00000000000E+00 -0.00000000000E+00 -0.43215755271E+02  0.43215755271E+02  0.00000000000E+00 0. -1.
          2    1    1    2  501    0 -0.62798262843E+02  0.71913616094E+02  0.15455521396E+03  0.18166591358E+03  0.00000000000E+00 0.  1.
          1    1    1    2  502    0  0.72035081345E+02  0.29965428406E+02  0.10657377061E+03  0.13207932626E+03  0.00000000000E+00 0. -1.
         22    1    1    2    0    0  0.84119490936E+01  0.26157740814E+02  0.33407347708E+02  0.43255510318E+02  0.00000000000E+00 0.  1.
         22    1    1    2    0    0 -0.17648767596E+02 -0.12803678531E+03  0.33651298663E+03  0.36048007929E+03  0.00000000000E+00 0. -1.
</event>
<event>
 6    1  0.4069520E-005  0.1855443E+03  0.7818608E-02  0.1163742E+00
          2   -1    0    0  502    0  0.00000000000E+00  0.00000000000E+00  0.79840455559E+03  0.79840455559E+03  0.00000000000E+00 0. -1.
          1   -1    0    0  501    0 -0.00000000000E+00 -0.00000000000E+00 -0.21131574120E+03  0.21131574120E+03  0.00000000000E+00 0. -1.
          2    1    1    2  501    0 -0.58163631731E+02 -0.14304502832E+03  0.50879400933E+03  0.53171066579E+03  0.00000000000E+00 0. -1.
          1    1    1    2  502    0 -0.31442228400E+02 -0.25275957301E+02 -0.15066621184E+03  0.15597370014E+03  0.00000000000E+00 0. -1.
         22    1    1    2    0    0 -0.10476774100E+02 -0.14229380340E+02  0.24781081841E+02  0.30435835419E+02  0.00000000000E+00 0. -1.
         22    1    1    2    0    0  0.10008263423E+03  0.18255036596E+03  0.20417993505E+03  0.29160009545E+03  0.00000000000E+00 0. -1.
</event>
<event>
 6    1  0.4069520E-005  0.4827106E+03  0.7818608E-02  0.1134458E+00
          2   -1    0    0  502    0  0.00000000000E+00  0.00000000000E+00  0.94764538344E+02  0.94764538344E+02  0.00000000000E+00 0.  1.
          1   -1    0    0  501    0 -0.00000000000E+00 -0.00000000000E+00 -0.11138240565E+04  0.11138240565E+04  0.00000000000E+00 0.  1.
          2    1    1    2  501    0  0.16738968384E+03 -0.14692924370E+03 -0.69707688484E+03  0.73179484303E+03  0.00000000000E+00 0.  1.
          1    1    1    2  502    0  0.22992198071E+01  0.85233376257E+02 -0.21795587900E+03  0.23404012483E+03  0.00000000000E+00 0.  1.
         22    1    1    2    0    0 -0.88656725378E+01 -0.18525237920E+02  0.16512999919E+02  0.26352680241E+02  0.00000000000E+00 0.  1.
         22    1    1    2    0    0 -0.16082323110E+03  0.80221105359E+02 -0.12053975428E+03  0.21640094678E+03  0.00000000000E+00 0.  1.
</event>
<event>
 6    1  0.4069520E-005  0.9354931E+02  0.7818608E-02  0.1352457E+00
          2   -1    0    0  502    0  0.00000000000E+00  0.00000000000E+00  0.25464510918E+02  0.25464510918E+02  0.00000000000E+00 0.  1.
          1   -1    0    0  501    0 -0.00000000000E+00 -0.00000000000E+00 -0.32723972402E+03  0.32723972402E+03  0.00000000000E+00 0. -1.
          2    1    1    2  501    0  0.28144025240E+02  0.22846522423E+01 -0.22489411280E+02  0.36098191261E+02  0.00000000000E+00 0.  1.
          1    1    1    2  502    0 -0.23588325796E+02 -0.88564682998E+01 -0.41895254730E+02  0.48888224691E+02  0.00000000000E+00 0. -1.
         22    1    1    2    0    0  0.18286118132E+02 -0.28332456364E+02 -0.81220457788E+01  0.34685412317E+02  0.00000000000E+00 0.  1.
         22    1    1    2    0    0 -0.22841817577E+02  0.34904272421E+02 -0.22926850131E+03  0.23303240667E+03  0.00000000000E+00 0.  1.
</event>
<event>
 6    1  0.4069520E-005  0.8785210E+02  0.7818608E-02  0.1330572E+00
          2   -1    0    0  502    0  0.00000000000E+00  0.00000000000E+00  0.37496923706E+03  0.37496923706E+03  0.00000000000E+00 0.  1.
          1   -1    0    0  501    0 -0.00000000000E+00 -0.00000000000E+00 -0.12283742029E+04  0.12283742029E+04  0.00000000000E+00 0.  1.
          2    1    1    2  501    0 -0.41085957002E+02  0.42783345684E+02  0.14687842749E+03  0.15840373415E+03  0.00000000000E+00 0.  1.
          1    1    1    2  502    0  0.50400016050E+02 -0.52975559860E+02 -0.12025258273E+04  0.12047468351E+04  0.00000000000E+00 0.  1.
         22    1    1    2    0    0 -0.13849553335E+02  0.68831772936E+02  0.98940174653E+02  0.12132098439E+03  0.00000000000E+00 0.  1.
         22    1    1    2    0    0  0.45354942861E+01 -0.58639558760E+02  0.10330225932E+03  0.11887188625E+03  0.00000000000E+00 0. -1.
</event>
<event>
 6    1  0.4069520E-005  0.2911090E+03  0.7818608E-02  0.1220040E+00
          2   -1    0    0  502    0  0.00000000000E+00  0.00000000000E+00  0.15837346782E+03  0.15837346782E+03  0.00000000000E+00 0. -1.
          1   -1    0    0  501    0 -0.00000000000E+00 -0.00000000000E+00 -0.48735568056E+03  0.48735568056E+03  0.00000000000E+00 0. -1.
          2    1    1    2  501    0  0.18017606932E+03  0.13519013271E+03 -0.23031547675E+03  0.32215680463E+03  0.00000000000E+00 0. -1.
          1    1    1    2  502    0 -0.13991445142E+03 -0.76108890087E+02 -0.67721726499E+02  0.17307469228E+03  0.00000000000E+00 0. -1.
         22    1    1    2    0    0 -0.12921492606E+02  0.39597610467E+01  0.45643540519E+02  0.47602284292E+02  0.00000000000E+00 0. -1.
         22    1    1    2    0    0 -0.27340125297E+02 -0.63041003667E+02 -0.76588550006E+02  0.10289536718E+03  0.00000000000E+00 0. -1.
</event>
<event>
 6    1  0.4069520E-005  0.4893923E+02  0.7818608E-02  0.1463456E+00
          2   -1    0    0  502    0  0.00000000000E+00  0.00000000000E+00  0.32152484553E+02  0.32152484553E+02  0.00000000000E+00 0. -1.
          1   -1    0    0  501    0 -0.00000000000E+00 -0.00000000000E+00 -0.46038934588E+03  0.46038934588E+03  0.00000000000E+00 0. -1.
          2    1    1    2  501    0 -0.28265515628E+02 -0.99517130184E+01 -0.43466633976E+02  0.52795115635E+02  0.00000000000E+00 0. -1.
          1    1    1    2  502    0  0.34777185209E+02  0.25365391871E+01 -0.27190020973E+03  0.27412699738E+03  0.00000000000E+00 0. -1.
         22    1    1    2    0    0 -0.44414103708E+02  0.72577499639E+01 -0.11899919266E+03  0.12722458645E+03  0.00000000000E+00 0. -1.
         22    1    1    2    0    0  0.37902434127E+02  0.15742386733E+00  0.61291750450E+01  0.38395130964E+02  0.00000000000E+00 0. -1.
</event>
<event>
 6    1  0.4069520E-005  0.9952723E+02  0.7818608E-02  0.1332591E+00
          2   -1    0    0  502    0  0.00000000000E+00  0.00000000000E+00  0.37562813078E+03  0.37562813078E+03  0.00000000000E+00 0.  1.
          1   -1    0    0  501    0 -0.00000000000E+00 -0.00000000000E+00 -0.48101950876E+03  0.48101950876E+03  0.00000000000E+00 0. -1.
          2    1    1    2  501    0  0.18373634575E+02 -0.43202355232E+02  0.68456818194E+02  0.83008252013E+02  0.00000000000E+00 0.  1.
          1    1    1    2  502    0 -0.65594806821E+02  0.29012561050E+02 -0.45652699849E+03  0.46212693898E+03  0.00000000000E+00 0. -1.
         22    1    1    2    0    0  0.42056105357E+02 -0.24508261307E+02  0.26360410641E+03  0.26806061961E+03  0.00000000000E+00 0.  1.
         22    1    1    2    0    0  0.51650668890E+01  0.38698055489E+02  0.19074695898E+02  0.43451828940E+02  0.00000000000E+00 0.  1.
</event>
<event>
 6    1  0.4069520E-005  0.8618983E+02  0.7818608E-02  0.1356612E+00
          2   -1    0    0  502    0  0.00000000000E+00  0.00000000000E+00  0.32016426898E+02  0.32016426898E+02  0.00000000000E+00 0. -1.
          1   -1    0    0  501    0 -0.00000000000E+00 -0.00000000000E+00 -0.60773286443E+03  0.60773286443E+03  0.00000000000E+00 0. -1.
          2    1    1    2  501    0  0.25719877250E+02  0.10940140108E+02 -0.22960139154E+03  0.23129634184E+03  0.00000000000E+00 0. -1.
          1    1    1    2  502    0 -0.78416008017E+02  0.29790857420E+01 -0.12874094080E+03  0.15077193076E+03  0.00000000000E+00 0. -1.
         22    1    1    2    0    0  0.27199795675E+02 -0.44434188502E+02 -0.21108859967E+03  0.21742268259E+03  0.00000000000E+00 0.  1.
         22    1    1    2    0    0  0.25496335093E+02  0.30514962652E+02 -0.62855055073E+01  0.40258336134E+02  0.00000000000E+00 0. -1.
</event>
<event>
 6    1  0.4069520E-005  0.8032229E+02  0.7818608E-02  0.1345307E+00
          2   -1    0    0  502    0  0.00000000000E+00  0.00000000000E+00  0.32845890346E+02  0.32845890346E+02  0.00000000000E+00 0.  1.
          1   -1    0    0  501    0 -0.00000000000E+00 -0.00000000000E+00 -0.56261116542E+03  0.56261116542E+03  0.00000000000E+00 0.  1.
          2    1    1    2  501    0  0.11641749951E+02  0.17729603548E+02 -0.41071540278E+02  0.46224891614E+02  0.00000000000E+00 0.  1.
          1    1    1    2  502    0 -0.29489406452E+02 -0.40794468101E+01 -0.38017510054E+03  0.38133892281E+03  0.00000000000E+00 0.  1.
         22    1    1    2    0    0  0.47735028937E+02  0.19011313980E+02 -0.75190915338E+00  0.51387045199E+02  0.00000000000E+00 0.  1.
         22    1    1    2    0    0 -0.29887372436E+02 -0.32661470718E+02 -0.10776672511E+03  0.11650619615E+03  0.00000000000E+00 0. -1.
</event>
<event>
 6    1  0.4069520E-005  0.3191939E+03  0.7818608E-02  0.1076427E+00
          2   -1    0    0  502    0  0.00000000000E+00  0.00000000000E+00  0.84180020510E+03  0.84180020510E+03  0.00000000000E+00 0. -1.
          1   -1    0    0  501    0 -0.00000000000E+00 -0.00000000000E+00 -0.17318997694E+04  0.17318997694E+04  0.00000000000E+00 0. -1.
          2    1    1    2  501    0  0.15651854367E+03 -0.36169103953E+03  0.19355708296E+03  0.43907038951E+03  0.00000000000E+00 0. -1.
          1    1    1    2  502    0 -0.17433640984E+03  0.75618027987E+02 -0.15558416585E+04  0.15674037567E+04  0.00000000000E+00 0. -1.
         22    1    1    2    0    0  0.13307455187E+02 -0.82069277607E+01  0.79046547743E+01  0.17519292050E+02  0.00000000000E+00 0.  1.
         22    1    1    2    0    0  0.45104109864E+01  0.29427993930E+03  0.46428035656E+03  0.54970653623E+03  0.00000000000E+00 0. -1.
</event>
<event>
 6    1  0.4069520E-005  0.7263357E+02  0.7818608E-02  0.1358166E+00
          2   -1    0    0  502    0  0.00000000000E+00  0.00000000000E+00  0.75335533799E+02  0.75335533799E+02  0.00000000000E+00 0.  1.
          1   -1    0    0  501    0 -0.00000000000E+00 -0.00000000000E+00 -0.51546309971E+03  0.51546309971E+03  0.00000000000E+00 0.  1.
          2    1    1    2  501    0 -0.24125923601E+02  0.23633520894E+02 -0.15423067690E+02  0.37127813246E+02  0.00000000000E+00 0.  1.
          1    1    1    2  502    0  0.16244697701E+02  0.16756418424E+02 -0.41742808750E+03  0.41807998756E+03  0.00000000000E+00 0.  1.
         22    1    1    2    0    0  0.48763277328E+02 -0.41932212027E+02  0.37894698065E+02  0.74647007727E+02  0.00000000000E+00 0.  1.
         22    1    1    2    0    0 -0.40882051428E+02  0.15422727092E+01 -0.45171108787E+02  0.60943824979E+02  0.00000000000E+00 0.  1.
</event>
<event>
 6    1  0.4069520E-005  0.7785250E+02  0.7818608E-02  0.1339105E+00
          2   -1    0    0  502    0  0.00000000000E+00  0.00000000000E+00  0.95944147090E+02  0.95944147090E+02  0.00000000000E+00 0.  1.
          1   -1    0    0  501    0 -0.00000000000E+00 -0.00000000000E+00 -0.14249086529E+03  0.14249086529E+03  0.00000000000E+00 0.  1.
          2    1    1    2  501    0 -0.34517416928E+02  0.27575096875E+01  0.32040412864E+02  0.47176731421E+02  0.00000000000E+00 0.  1.
          1    1    1    2  502    0  0.24416309351E+02  0.12986918243E+02 -0.60280377328E+02  0.66321490473E+02  0.00000000000E+00 0.  1.
         22    1    1    2    0    0 -0.36712536820E+02  0.27765659088E+02  0.20259397628E+02  0.50291006915E+02  0.00000000000E+00 0.  1.
         22    1    1    2    0    0  0.46813644396E+02 -0.43510087018E+02 -0.38566151363E+02  0.74645783571E+02  0.00000000000E+00 0.  1.
</event>
<event>
 6    1  0.4069520E-005  0.1051240E+03  0.7818608E-02  0.1271361E+00
          2   -1    0    0  502    0  0.00000000000E+00  0.00000000000E+00  0.43697941758E+03  0.43697941758E+03  0.00000000000E+00 0. -1.
          1   -1    0    0  501    0 -0.00000000000E+00 -0.00000000000E+00 -0.38884353849E+03  0.38884353849E+03  0.00000000000E+00 0.  1.
          2    1    1    2  501    0 -0.11740624098E+03 -0.26258209358E+02 -0.18176176935E+02  0.12167206905E+03  0.00000000000E+00 0. -1.
          1    1    1    2  502    0  0.32426510285E+02  0.18247451671E+02 -0.30334476211E+03  0.30561821406E+03  0.00000000000E+00 0.  1.
         22    1    1    2    0    0  0.99534547132E+02  0.27532822801E+01  0.36988775797E+03  0.38305568803E+03  0.00000000000E+00 0. -1.
         22    1    1    2    0    0 -0.14554816438E+02  0.52574754068E+01 -0.23093983035E+00  0.15476984926E+02  0.00000000000E+00 0.  1.
</event>
<event>
 6    1  0.4069520E-005  0.1134431E+03  0.7818608E-02  0.1255429E+00
          2   -1    0    0  502    0  0.00000000000E+00  0.00000000000E+00  0.45851704878E+03  0.45851704878E+03  0.00000000000E+00 0.  1.
          1   -1    0    0  501    0 -0.00000000000E+00 -0.00000000000E+00 -0.10360625331E+03  0.10360625331E+03  0.00000000000E+00 0.  1.
          2    1    1    2  501    0  0.60291462364E+02  0.83959545448E+02  0.14418023713E+03  0.17740407686E+03  0.00000000000E+00 0.  1.
          1    1    1    2  502    0 -0.20394672343E+02 -0.28649398292E+02 -0.65246700860E+02  0.74120595354E+02  0.00000000000E+00 0.  1.
         22    1    1    2    0    0 -0.52703649332E+02 -0.85856248848E+02  0.24637521880E+03  0.26617610441E+03  0.00000000000E+00 0.  1.
         22    1    1    2    0    0  0.12806859311E+02  0.30546101692E+02  0.29602040396E+02  0.44422525475E+02  0.00000000000E+00 0. -1.
</event>
<event>
 6    1  0.4069520E-005  0.3953326E+02  0.7818608E-02  0.1586426E+00
          2   -1    0    0  502    0  0.00000000000E+00  0.00000000000E+00  0.94292909485E+02  0.94292909485E+02  0.00000000000E+00 0.  1.
          1   -1    0    0  501    0 -0.00000000000E+00 -0.00000000000E+00 -0.13932194162E+03  0.13932194162E+03  0.00000000000E+00 0.  1.
          2    1    1    2  501    0 -0.96772070591E+01  0.18191086598E+02 -0.43160314797E+02  0.47826527591E+02  0.00000000000E+00 0.  1.
          1    1    1    2  502    0  0.16015676855E+02 -0.15310825541E+02 -0.49330021458E+02  0.54077484233E+02  0.00000000000E+00 0.  1.
         22    1    1    2    0    0  0.11500058029E+02  0.97951717375E+01  0.86040926682E+02  0.87356956153E+02  0.00000000000E+00 0.  1.
         22    1    1    2    0    0 -0.17838527825E+02 -0.12675432795E+02 -0.38579622562E+02  0.44353883128E+02  0.00000000000E+00 0. -1.
</event>
<event>
 6    1  0.4069520E-005  0.6164644E+02  0.7818608E-02  0.1392756E+00
          2   -1    0    0  502    0  0.00000000000E+00  0.00000000000E+00  0.33456896125E+03  0.33456896125E+03  0.00000000000E+00 0.  1.
          1   -1    0    0  501    0 -0.00000000000E+00 -0.00000000000E+00 -0.34369337294E+02  0.34369337294E+02  0.00000000000E+00 0. -1.
          2    1    1    2  501    0  0.18893252002E+02  0.75691279238E+01  0.15893498776E+02  0.25823438425E+02  0.00000000000E+00 0.  1.
          1    1    1    2  502    0 -0.25292337890E+02  0.96683998835E+01 -0.65325195444E+01  0.27854158107E+02  0.00000000000E+00 0. -1.
         22    1    1    2    0    0  0.41111472647E+02  0.29395342529E+02  0.66577202374E+02  0.83586860341E+02  0.00000000000E+00 0.  1.
         22    1    1    2    0    0 -0.34712386759E+02 -0.46632870336E+02  0.22426144235E+03  0.23167384167E+03  0.00000000000E+00 0.  1.
</event>
<event>
 6    1  0.4069520E-005  0.1141671E+03  0.7818608E-02  0.1258638E+00
          2   -1    0    0  502    0  0.00000000000E+00  0.00000000000E+00  0.63811743740E+03  0.63811743740E+03  0.00000000000E+00 0.  1.
          1   -1    0    0  501    0 -0.00000000000E+00 -0.00000000000E+00 -0.64368197706E+02  0.64368197706E+02  0.00000000000E+00 0.  1.
          2    1    1    2  501    0  0.65670312329E+02 -0.32052080994E+02  0.25517100365E+02  0.77401861918E+02  0.00000000000E+00 0.  1.
          1    1    1    2  502    0 -0.11624350872E+01  0.82979088519E+02  0.33768572441E+02  0.89594625237E+02  0.00000000000E+00 0.  1.
         22    1    1    2    0    0  0.31459342880E+02 -0.22303071575E+01  0.53266452917E+02  0.61902984829E+02  0.00000000000E+00 0.  1.
         22    1    1    2    0    0 -0.95967220121E+02 -0.48696700367E+02  0.46119711397E+03  0.47358616312E+03  0.00000000000E+00 0.  1.
</event>
<event>
 6    1  0.4069520E-005  0.2198072E+03  0.7818608E-02  0.1226301E+00
          2   -1    0    0  502    0  0.00000000000E+00  0.00000000000E+00  0.81482386300E+02  0.81482386300E+02  0.00000000000E+00 0. -1.
          1   -1    0    0  501    0 -0.00000000000E+00 -0.00000000000E+00 -0.12206793179E+04  0.12206793179E+04  0.00000000000E+00 0. -1.
          2    1    1    2  501    0 -0.41354330654E+02 -0.14393519469E+01 -0.26346667895E+03  0.26669635040E+03  0.00000000000E+00 0. -1.
          1    1    1    2  502    0  0.27122067320E+02 -0.69105209989E+02 -0.88606679500E+03  0.88917124435E+03  0.00000000000E+00 0. -1.
         22    1    1    2    0    0  0.12361614196E+02  0.98027154809E+02 -0.24584682226E+02  0.10181620296E+03  0.00000000000E+00 0. -1.
         22    1    1    2    0    0  0.18706491380E+01 -0.27482592873E+02  0.34921224578E+02  0.44477906485E+02  0.00000000000E+00 0. -1.
</event>
<event>
 6    1  0.4069520E-005  0.2041315E+03  0.7818608E-02  0.1183820E+00
          2   -1    0    0  502    0  0.00000000000E+00  0.00000000000E+00  0.12116566691E+03  0.12116566691E+03  0.00000000000E+00 0. -1.
          1   -1    0    0  501    0 -0.00000000000E+00 -0.00000000000E+00 -0.56826902707E+03  0.56826902707E+03  0.00000000000E+00 0. -1.
          2    1    1    2  501    0 -0.11135323996E+03  0.82405839536E+02 -0.26169724526E+03  0.29610085210E+03  0.00000000000E+00 0. -1.
          1    1    1    2  502    0  0.18582579342E+03 -0.66762644024E+02 -0.10368390020E+03  0.22302203321E+03  0.00000000000E+00 0. -1.
         22    1    1    2    0    0 -0.49225032684E+02 -0.70361366010E+02 -0.30198621619E+02  0.91026273225E+02  0.00000000000E+00 0. -1.
         22    1    1    2    0    0 -0.25247520770E+02  0.54718170498E+02 -0.51523593081E+02  0.79285535450E+02  0.00000000000E+00 0.  1.
</event>
<event>
 6    1  0.4069520E-005  0.4678913E+02  0.7818608E-02  0.1470266E+00
          2   -1    0    0  502    0  0.00000000000E+00  0.00000000000E+00  0.98115539546E+02  0.98115539546E+02  0.00000000000E+00 0. -1.
          1   -1    0    0  501    0 -0.00000000000E+00 -0.00000000000E+00 -0.81702487747E+03  0.81702487747E+03  0.00000000000E+00 0.  1.
          2    1    1    2  501    0  0.21472916866E+02  0.36610709648E+02 -0.54932529199E+02  0.69419111085E+02  0.00000000000E+00 0. -1.
          1    1    1    2  502    0 -0.13338384083E+02 -0.17077476581E+02 -0.71038908641E+03  0.71071949938E+03  0.00000000000E+00 0.  1.
         22    1    1    2    0    0 -0.20098592212E+01  0.21569910367E+02 -0.36393502720E+02  0.42353129844E+02  0.00000000000E+00 0. -1.
         22    1    1    2    0    0 -0.61246735621E+01 -0.41103143434E+02  0.82805780412E+02  0.92648676709E+02  0.00000000000E+00 0. -1.
</event>
<event>
 6    1  0.4069520E-005  0.9773992E+02  0.7818608E-02  0.1305770E+00
          2   -1    0    0  502    0  0.00000000000E+00  0.00000000000E+00  0.24497850595E+02  0.24497850595E+02  0.00000000000E+00 0.  1.
          1   -1    0    0  501    0 -0.00000000000E+00 -0.00000000000E+00 -0.88575530848E+03  0.88575530848E+03  0.00000000000E+00 0.  1.
          2    1    1    2  501    0 -0.71585591306E+01 -0.21206166195E+02 -0.36887964633E+03  0.36955803324E+03  0.00000000000E+00 0.  1.
          1    1    1    2  502    0 -0.30813608382E+02  0.15699697479E+02 -0.50999270253E+01  0.34956661999E+02  0.00000000000E+00 0.  1.
         22    1    1    2    0    0 -0.25625106573E+02  0.44152750416E+02 -0.29827849037E+03  0.30261554698E+03  0.00000000000E+00 0. -1.
         22    1    1    2    0    0  0.63597274086E+02 -0.38646281701E+02 -0.18899939416E+03  0.20312291686E+03  0.00000000000E+00 0. -1.
</event>
<event>
 6    1  0.4069520E-005  0.2489762E+03  0.7818608E-02  0.1199472E+00
          2   -1    0    0  502    0  0.00000000000E+00  0.00000000000E+00  0.24141216058E+02  0.24141216058E+02  0.00000000000E+00 0. -1.
          1   -1    0    0  501    0 -0.00000000000E+00 -0.00000000000E+00 -0.14307393764E+04  0.14307393764E+04  0.00000000000E+00 0.  1.
          2    1    1    2  501    0 -0.20266628048E+02  0.10773650836E+03 -0.60831693901E+03  0.61811600022E+03  0.00000000000E+00 0. -1.
          1    1    1    2  502    0  0.46833774650E+02 -0.26869365027E+02 -0.48332834603E+03  0.48633492091E+03  0.00000000000E+00 0.  1.
         22    1    1    2    0    0 -0.27172609953E+02 -0.11438402868E+03 -0.26880939640E+03  0.29339486762E+03  0.00000000000E+00 0. -1.
         22    1    1    2    0    0  0.60546335124E+00  0.33516885349E+02 -0.46143478948E+02  0.57034803750E+02  0.00000000000E+00 0.  1.
</event>
<event>
 6    1  0.4069520E-005  0.1268949E+03  0.7818608E-02  0.1312813E+00
          2   -1    0    0  502    0  0.00000000000E+00  0.00000000000E+00  0.53775877102E+02  0.53775877102E+02  0.00000000000E+00 0. -1.
          1   -1    0    0  501    0 -0.00000000000E+00 -0.00000000000E+00 -0.23000853448E+04  0.23000853448E+04  0.00000000000E+00 0.  1.
          2    1    1    2  501    0 -0.64058173160E+02 -0.54704130529E+02 -0.13262984806E+03  0.15711991613E+03  0.00000000000E+00 0. -1.
          1    1    1    2  502    0  0.34592602561E+01  0.38807487473E+02 -0.20316029727E+04  0.20319765319E+04  0.00000000000E+00 0.  1.
         22    1    1    2    0    0  0.34412707625E+02  0.21519008268E+02 -0.11521588624E+03  0.12215564909E+03  0.00000000000E+00 0. -1.
         22    1    1    2    0    0  0.26186205279E+02 -0.56223652118E+01  0.33139239270E+02  0.42609124808E+02  0.00000000000E+00 0. -1.
</event>
<event>
 6    1  0.4069520E-005  0.1194730E+03  0.7818608E-02  0.1274526E+00
          2   -1    0    0  502    0  0.00000000000E+00  0.00000000000E+00  0.26367798988E+03  0.26367798988E+03  0.00000000000E+00 0. -1.
          1   -1    0    0  501    0 -0.00000000000E+00 -0.00000000000E+00 -0.10999354341E+03  0.10999354341E+03  0.00000000000E+00 0. -1.
          2    1    1    2  501    0  0.32345758412E+02  0.26172672054E+02  0.27874819078E+02  0.50082555729E+02  0.00000000000E+00 0. -1.
          1    1    1    2  502    0 -0.11361471062E+03 -0.73632765160E+02  0.22121858320E+02  0.13718404860E+03  0.00000000000E+00 0. -1.
         22    1    1    2    0    0  0.51689873428E+02 -0.10952815441E+02 -0.11346645471E+02  0.54042146003E+02  0.00000000000E+00 0. -1.
         22    1    1    2    0    0  0.29579078775E+02  0.58412908547E+02  0.11503441454E+03  0.13236278297E+03  0.00000000000E+00 0. -1.
</event>
<event>
 6    1  0.4069520E-005  0.6980148E+03  0.7818608E-02  0.1039127E+00
          2   -1    0    0  502    0  0.00000000000E+00  0.00000000000E+00  0.82205913895E+03  0.82205913895E+03  0.00000000000E+00 0.  1.
          1   -1    0    0  501    0 -0.00000000000E+00 -0.00000000000E+00 -0.34074333914E+03  0.34074333914E+03  0.00000000000E+00 0.  1.
          2    1    1    2  501    0 -0.30546297405E+03 -0.17763794316E+03  0.12804851444E+03  0.37584476771E+03  0.00000000000E+00 0.  1.
          1    1    1    2  502    0 -0.13241574262E+02 -0.15277200120E+02 -0.14882921624E+03  0.15019609762E+03  0.00000000000E+00 0.  1.
         22    1    1    2    0    0  0.28159290219E+03  0.11361333686E+03  0.37723782724E+03  0.48426328704E+03  0.00000000000E+00 0.  1.
         22    1    1    2    0    0  0.37111646114E+02  0.79301806418E+02  0.12485867439E+03  0.15249832572E+03  0.00000000000E+00 0.  1.
</event>
<event>
 6    1  0.4069520E-005  0.2796081E+03  0.7818608E-02  0.1193102E+00
          2   -1    0    0  502    0  0.00000000000E+00  0.00000000000E+00  0.64505879781E+03  0.64505879781E+03  0.00000000000E+00 0. -1.
          1   -1    0    0  501    0 -0.00000000000E+00 -0.00000000000E+00 -0.21764960025E+03  0.21764960025E+03  0.00000000000E+00 0.  1.
          2    1    1    2  501    0 -0.10945202687E+03 -0.69557860190E+02  0.82362242180E+02  0.15362806071E+03  0.00000000000E+00 0. -1.
          1    1    1    2  502    0  0.20737440448E+03  0.42775100774E+02 -0.10200535662E+03  0.23502966974E+03  0.00000000000E+00 0.  1.
         22    1    1    2    0    0 -0.12496522604E+03  0.29733591264E+02  0.33605585818E+03  0.35976927882E+03  0.00000000000E+00 0. -1.
         22    1    1    2    0    0  0.27042848435E+02 -0.29508318484E+01  0.11099645383E+03  0.11428138879E+03  0.00000000000E+00 0.  1.
</event>
<event>
 6    1  0.4069520E-005  0.2180495E+03  0.7818608E-02  0.1216730E+00
          2   -1    0    0  502    0  0.00000000000E+00  0.00000000000E+00  0.38185203572E+03  0.38185203572E+03  0.00000000000E+00 0. -1.
          1   -1    0    0  501    0 -0.00000000000E+00 -0.00000000000E+00 -0.18381916703E+04  0.18381916703E+04  0.00000000000E+00 0.  1.
          2    1    1    2  501    0  0.96829780943E+01  0.44801020893E+02  0.15308588182E+02  0.48324366628E+02  0.00000000000E+00 0. -1.
          1    1    1    2  502    0 -0.17704656406E+03 -0.86546046450E+02 -0.17825728541E+04  0.17934329327E+04  0.00000000000E+00 0.  1.
         22    1    1    2    0    0  0.30488682543E+02  0.16104013331E+02  0.19226398980E+03  0.19533136149E+03  0.00000000000E+00 0. -1.
         22    1    1    2    0    0  0.13687490342E+03  0.25641012226E+02  0.11866064156E+03  0.18295504516E+03  0.00000000000E+00 0. -1.
</event>
<event>
 6    1  0.4069520E-005  0.9707269E+02  0.7818608E-02  0.1365747E+00
          2   -1    0    0  502    0  0.00000000000E+00  0.00000000000E+00  0.15901350029E+03  0.15901350029E+03  0.00000000000E+00 0. -1.
          1   -1    0    0  501    0 -0.00000000000E+00 -0.00000000000E+00 -0.27458506948E+03  0.27458506948E+03  0.00000000000E+00 0. -1.
          2    1    1    2  501    0 -0.86624115114E+02 -0.29347507617E+02 -0.57704581736E+02  0.10814264781E+03  0.00000000000E+00 0. -1.
          1    1    1    2  502    0  0.71824950744E+02  0.65906709560E+01 -0.15016877532E+03  0.16659208137E+03  0.00000000000E+00 0. -1.
         22    1    1    2    0    0 -0.74017329244E+01  0.13963781005E+02 -0.30184508889E+02  0.34071651077E+02  0.00000000000E+00 0.  1.
         22    1    1    2    0    0  0.22200897295E+02  0.87930556554E+01  0.12248629676E+03  0.12479218950E+03  0.00000000000E+00 0. -1.
</event>
<event>
 6    1  0.4069520E-005  0.8690831E+02  0.7818608E-02  0.1373205E+00
          2   -1    0    0  502    0  0.00000000000E+00  0.00000000000E+00  0.66013768347E+02  0.66013768347E+02  0.00000000000E+00 0.  1.
          1   -1    0    0  501    0 -0.00000000000E+00 -0.00000000000E+00 -0.30892621937E+03  0.30892621937E+03  0.00000000000E+00 0.  1.
          2    1    1    2  501    0 -0.84290139442E+01 -0.27151926174E+02  0.46239175018E+00  0.28433944102E+02  0.00000000000E+00 0.  1.
          1    1    1    2  502    0 -0.11434813971E+02  0.20241865352E+02 -0.20959376933E+03  0.21087919818E+03  0.00000000000E+00 0.  1.
         22    1    1    2    0    0  0.47754518901E+02  0.15318567162E+02 -0.71892935536E+02  0.87656983495E+02  0.00000000000E+00 0.  1.
         22    1    1    2    0    0 -0.27890690986E+02 -0.84085063397E+01  0.38111862092E+02  0.47969861941E+02  0.00000000000E+00 0.  1.
</event>
<event>
 6    1  0.4069520E-005  0.4150682E+02  0.7818608E-02  0.1550372E+00
          2   -1    0    0  502    0  0.00000000000E+00  0.00000000000E+00  0.19993233083E+02  0.19993233083E+02  0.00000000000E+00 0.  1.
          1   -1    0    0  501    0 -0.00000000000E+00 -0.00000000000E+00 -0.72057653491E+03  0.72057653491E+03  0.00000000000E+00 0.  1.
          2    1    1    2  501    0  0.18784032616E+00  0.20294122674E+02 -0.74128020254E+02  0.76856034805E+02  0.00000000000E+00 0.  1.
          1    1    1    2  502    0 -0.11707827143E+01 -0.34946805386E+02 -0.44013304043E+03  0.44151981067E+03  0.00000000000E+00 0.  1.
         22    1    1    2    0    0  0.13381651072E+02  0.30994118490E+02 -0.19644132453E+03  0.19932109259E+03  0.00000000000E+00 0.  1.
         22    1    1    2    0    0 -0.12398708683E+02 -0.16341435778E+02  0.10119083389E+02  0.22872829928E+02  0.00000000000E+00 0.  1.
</event>
<event>
 6    1  0.4069520E-005  0.2238666E+03  0.7818608E-02  0.1255082E+00
          2   -1    0    0  502    0  0.00000000000E+00  0.00000000000E+00  0.56967861735E+03  0.56967861735E+03  0.00000000000E+00 0.  1.
          1   -1    0    0  501    0 -0.00000000000E+00 -0.00000000000E+00 -0.12176438544E+03  0.12176438544E+03  0.00000000000E+00 0.  1.
          2    1    1    2  501    0  0.20689859617E+02 -0.30851686051E+01 -0.41335443548E+01  0.21323103555E+02  0.00000000000E+00 0.  1.
          1    1    1    2  502    0 -0.20415142107E+03  0.10378044390E+03  0.32263274167E+03  0.39565144921E+03  0.00000000000E+00 0.  1.
         22    1    1    2    0    0  0.17632243902E+03 -0.88026851481E+02  0.63624941782E+02  0.20709046888E+03  0.00000000000E+00 0.  1.
         22    1    1    2    0    0  0.71391224355E+01 -0.12668423811E+02  0.65790092807E+02  0.67377981140E+02  0.00000000000E+00 0.  1.
</event>
<event>
 6    1  0.4069520E-005  0.2371715E+03  0.7818608E-02  0.1194156E+00
          2   -1    0    0  502    0  0.00000000000E+00  0.00000000000E+00  0.59496239811E+02  0.59496239811E+02  0.00000000000E+00 0.  1.
          1   -1    0    0  501    0 -0.00000000000E+00 -0.00000000000E+00 -0.99076713276E+03  0.99076713276E+03  0.00000000000E+00 0.  1.
          2    1    1    2  501    0 -0.32541332775E+02 -0.66219376557E+02 -0.24055301772E+03  0.25161418582E+03  0.00000000000E+00 0.  1.
          1    1    1    2  502    0 -0.74336198979E+02  0.15485771848E+03 -0.51743817082E+03  0.54520550628E+03  0.00000000000E+00 0.  1.
         22    1    1    2    0    0  0.12435171418E+03 -0.48742578204E+02 -0.15889797843E+03  0.20757590250E+03  0.00000000000E+00 0.  1.
         22    1    1    2    0    0 -0.17474182428E+02 -0.39895763716E+02 -0.14381725971E+02  0.45867777970E+02  0.00000000000E+00 0.  1.
</event>
<event>
 6    1  0.4069520E-005  0.1949316E+03  0.7818608E-02  0.1238349E+00
          2   -1    0    0  502    0  0.00000000000E+00  0.00000000000E+00  0.15652098385E+03  0.15652098385E+03  0.00000000000E+00 0.  1.
          1   -1    0    0  501    0 -0.00000000000E+00 -0.00000000000E+00 -0.11529973070E+04  0.11529973070E+04  0.00000000000E+00 0.  1.
          2    1    1    2  501    0  0.12519341336E+02  0.17360764065E+02 -0.52116248709E+02  0.56340335603E+02  0.00000000000E+00 0.  1.
          1    1    1    2  502    0 -0.14196582468E+03 -0.51249355284E+02 -0.10374088824E+04  0.10483310455E+04  0.00000000000E+00 0.  1.
         22    1    1    2    0    0  0.12243628783E+03  0.63906372599E+02  0.40504596739E+02  0.14392807716E+03  0.00000000000E+00 0.  1.
         22    1    1    2    0    0  0.70101955059E+01 -0.30017781380E+02  0.52544211150E+02  0.60918832600E+02  0.00000000000E+00 0.  1.
</event>
<event>
 6    1  0.4069520E-005  0.1481606E+03  0.7818608E-02  0.1283809E+00
          2   -1    0    0  502    0  0.00000000000E+00  0.00000000000E+00  0.23947394441E+03  0.23947394441E+03  0.00000000000E+00 0.  1.
          1   -1    0    0  501    0 -0.00000000000E+00 -0.00000000000E+00 -0.58347273823E+03  0.58347273823E+03  0.00000000000E+00 0. -1.
          2    1    1    2  501    0  0.69291062280E+02 -0.64406084213E+02  0.83480415896E+02  0.12616804205E+03  0.00000000000E+00 0.  1.
          1    1    1    2  502    0 -0.10098362165E+03  0.86153287379E+02 -0.52040871337E+03  0.53707104718E+03  0.00000000000E+00 0. -1.
         22    1    1    2    0    0 -0.80137462437E+01  0.27625785811E+02  0.91947279297E+02  0.96341612715E+02  0.00000000000E+00 0.  1.
         22    1    1    2    0    0  0.39706305610E+02 -0.49372988978E+02  0.98222435194E+00  0.63365980703E+02  0.00000000000E+00 0.  1.
</event>
<event>
 6    1  0.4069520E-005  0.1208215E+03  0.7818608E-02  0.1249051E+00
          2   -1    0    0  502    0  0.00000000000E+00  0.00000000000E+00  0.11566255988E+03  0.11566255988E+03  0.00000000000E+00 0.  1.
          1   -1    0    0  501    0 -0.00000000000E+00 -0.00000000000E+00 -0.32404227821E+03  0.32404227821E+03  0.00000000000E+00 0.  1.
          2    1    1    2  501    0 -0.82846777895E+02  0.35804226273E+02  0.43800062478E+02  0.10031937350E+03  0.00000000000E+00 0.  1.
          1    1    1    2  502    0  0.53331031580E+02 -0.34578736517E+02 -0.18458578580E+03  0.19522243792E+03  0.00000000000E+00 0.  1.
         22    1    1    2    0    0 -0.16760896952E+02  0.46153296074E+02  0.59358969983E+00  0.49106076548E+02  0.00000000000E+00 0.  1.
         22    1    1    2    0    0  0.46276643267E+02 -0.47378785830E+02 -0.68187584698E+02  0.95056950118E+02  0.00000000000E+00 0. -1.
</event>
<event>
 6    1  0.4069520E-005  0.3782689E+03  0.7818608E-02  0.1195095E+00
          2   -1    0    0  502    0  0.00000000000E+00  0.00000000000E+00  0.23631089201E+03  0.23631089201E+03  0.00000000000E+00 0. -1.
          1   -1    0    0  501    0 -0.00000000000E+00 -0.00000000000E+00 -0.81712955552E+03  0.81712955552E+03  0.00000000000E+00 0. -1.
          2    1    1    2  501    0 -0.62654680579E+02  0.10397590526E+03  0.17873616453E+03  0.21606298708E+03  0.00000000000E+00 0. -1.
          1    1    1    2  502    0  0.35301141628E+02 -0.13136538834E+02 -0.64447283919E+03  0.64557259832E+03  0.00000000000E+00 0. -1.
         22    1    1    2    0    0  0.17340452121E+02 -0.87623863068E+02 -0.13925650101E+03  0.16544185001E+03  0.00000000000E+00 0. -1.
         22    1    1    2    0    0  0.10013086830E+02 -0.32155033601E+01  0.24174512164E+02  0.26363012121E+02  0.00000000000E+00 0.  1.
</event>
<event>
 6    1  0.4069520E-005  0.1591650E+03  0.7818608E-02  0.1221271E+00
          2   -1    0    0  502    0  0.00000000000E+00  0.00000000000E+00  0.38112998636E+03  0.38112998636E+03  0.00000000000E+00 0.  1.
          1   -1    0    0  501    0 -0.00000000000E+00 -0.00000000000E+00 -0.15532870618E+03  0.15532870618E+03  0.00000000000E+00 0.  1.
          2    1    1    2  501    0 -0.14475672304E+01  0.85353182192E+02  0.39560930536E+02  0.94086813029E+02  0.00000000000E+00 0.  1.
          1    1    1    2  502    0 -0.47485896404E+02 -0.77678808054E+02 -0.95053169016E+02  0.13162071462E+03  0.00000000000E+00 0.  1.
         22    1    1    2    0    0  0.78289750003E+02 -0.19066394054E+02  0.10870172378E+03  0.13531029927E+03  0.00000000000E+00 0.  1.
         22    1    1    2    0    0 -0.29356286368E+02  0.11392019916E+02  0.17259179488E+03  0.17544086561E+03  0.00000000000E+00 0. -1.
</event>
<event>
 6    1  0.4069520E-005  0.6629319E+02  0.7818608E-02  0.1375068E+00
          2   -1    0    0  502    0  0.00000000000E+00  0.00000000000E+00  0.32025802384E+03  0.32025802384E+03  0.00000000000E+00 0.  1.
          1   -1    0    0  501    0 -0.00000000000E+00 -0.00000000000E+00 -0.47969591892E+02  0.47969591892E+02  0.00000000000E+00 0.  1.
          2    1    1    2  501    0 -0.46604960506E+02 -0.58123908911E+01  0.33635272736E+01  0.47086298935E+02  0.00000000000E+00 0.  1.
          1    1    1    2  502    0  0.18208931073E+02 -0.99512752644E+01 -0.39169040316E+01  0.21117177543E+02  0.00000000000E+00 0.  1.
         22    1    1    2    0    0  0.57375831034E+02  0.25779401216E+02  0.25873803657E+03  0.26627417276E+03  0.00000000000E+00 0.  1.
         22    1    1    2    0    0 -0.28979801600E+02 -0.10015735060E+02  0.14103772139E+02  0.33749966491E+02  0.00000000000E+00 0. -1.
</event>
<event>
 6    1  0.4069520E-005  0.7822192E+02  0.7818608E-02  0.1349172E+00
          2   -1    0    0  502    0  0.00000000000E+00  0.00000000000E+00  0.40382378913E+03  0.40382378913E+03  0.00000000000E+00 0.  1.
          1   -1    0    0  501    0 -0.00000000000E+00 -0.00000000000E+00 -0.53489683556E+03  0.53489683556E+03  0.00000000000E+00 0. -1.
          2    1    1    2  501    0  0.85477349337E+01  0.67474947264E+02 -0.28501486259E+02  0.73744606581E+02  0.00000000000E+00 0.  1.
          1    1    1    2  502    0  0.16195561744E+02 -0.43241904277E+02 -0.47163878350E+03  0.47389376511E+03  0.00000000000E+00 0. -1.
         22    1    1    2    0    0 -0.20918718432E+02 -0.55135978992E+02  0.34920255150E+03  0.35414684940E+03  0.00000000000E+00 0.  1.
         22    1    1    2    0    0 -0.38245782464E+01  0.30902936005E+02  0.19864671825E+02  0.36935403601E+02  0.00000000000E+00 0. -1.
</event>
<event>
 6    1  0.4069520E-005  0.3094288E+03  0.7818608E-02  0.1221127E+00
          2   -1    0    0  502    0  0.00000000000E+00  0.00000000000E+00  0.23729971213E+03  0.23729971213E+03  0.00000000000E+00 0.  1.
          1   -1    0    0  501    0 -0.00000000000E+00 -0.00000000000E+00 -0.13485317793E+04  0.13485317793E+04  0.00000000000E+00 0. -1.
          2    1    1    2  501    0  0.93680269850E+02  0.81282306261E+02  0.62843886769E+02  0.13904013944E+03  0.00000000000E+00 0.  1.
          1    1    1    2  502    0  0.56209199302E+02  0.21477408543E+01 -0.12280449960E+04  0.12293325828E+04  0.00000000000E+00 0. -1.
         22    1    1    2    0    0  0.71613666381E+01  0.83495020761E+01  0.32479310499E+02  0.34291470769E+02  0.00000000000E+00 0.  1.
         22    1    1    2    0    0 -0.15705083579E+03 -0.91779549191E+02  0.21489731528E+02  0.18316729848E+03  0.00000000000E+00 0.  1.
</event>
<event>
 6    1  0.4069520E-005  0.8146989E+02  0.7818608E-02  0.1356082E+00
          2   -1    0    0  502    0  0.00000000000E+00  0.00000000000E+00  0.14990495954E+03  0.14990495954E+03  0.00000000000E+00 0. -1.
          1   -1    0    0  501    0 -0.00000000000E+00 -0.00000000000E+00 -0.59879017868E+02  0.59879017868E+02  0.00000000000E+00 0. -1.
          2    1    1    2  501    0  0.23703194721E+02  0.17356968445E+02  0.93580105807E+00  0.29393562513E+02  0.00000000000E+00 0. -1.
          1    1    1    2  502    0 -0.80366166231E+01 -0.24135080615E+02  0.21011543954E+02  0.32993549405E+02  0.00000000000E+00 0. -1.
         22    1    1    2    0    0 -0.12176517366E+02  0.48626649559E+02  0.87723052479E+02  0.10103540250E+03  0.00000000000E+00 0. -1.
         22    1    1    2    0    0 -0.34900607318E+01 -0.41848537388E+02 -0.19644455823E+02  0.46361462984E+02  0.00000000000E+00 0. -1.
</event>
<event>
 6    1  0.4069520E-005  0.9766083E+02  0.7818608E-02  0.1345020E+00
          2   -1    0    0  502    0  0.00000000000E+00  0.00000000000E+00  0.41291772906E+03  0.41291772906E+03  0.00000000000E+00 0.  1.
          1   -1    0    0  501    0 -0.00000000000E+00 -0.00000000000E+00 -0.27599040759E+02  0.27599040759E+02  0.00000000000E+00 0.  1.
          2    1    1    2  501    0 -0.35308701186E+02 -0.15709925646E+02  0.79451223037E+02  0.88351587339E+02  0.00000000000E+00 0.  1.
          1    1    1    2  502    0 -0.45277593836E+01 -0.22287133266E+02  0.12242772611E+03  0.12452214676E+03  0.00000000000E+00 0.  1.
         22    1    1    2    0    0  0.10013532659E+02  0.21452668474E+02 -0.13849304549E+02  0.27427924775E+02  0.00000000000E+00 0.  1.
         22    1    1    2    0    0  0.29822927911E+02  0.16544390439E+02  0.19728904370E+03  0.20021511094E+03  0.00000000000E+00 0.  1.
</event>
<event>
 6    1  0.4069520E-005  0.7938908E+02  0.7818608E-02  0.1333727E+00
          2   -1    0    0  502    0  0.00000000000E+00  0.00000000000E+00  0.44731385124E+03  0.44731385124E+03  0.00000000000E+00 0. -1.
          1   -1    0    0  501    0 -0.00000000000E+00 -0.00000000000E+00 -0.36711386038E+03  0.36711386038E+03  0.00000000000E+00 0.  1.
          2    1    1    2  501    0 -0.46669136189E+02  0.34721976625E+01  0.12782103735E+03  0.13611863215E+03  0.00000000000E+00 0. -1.
          1    1    1    2  502    0  0.50359616942E+02 -0.52537519347E+01 -0.34864217853E+03  0.35229967581E+03  0.00000000000E+00 0.  1.
         22    1    1    2    0    0 -0.57402165431E+02  0.28740483884E+02  0.13611147226E+03  0.15049038804E+03  0.00000000000E+00 0.  1.
         22    1    1    2    0    0  0.53711684679E+02 -0.26958929612E+02  0.16490965977E+03  0.17551901561E+03  0.00000000000E+00 0. -1.
</event>
<event>
 6    1  0.4069520E-005  0.1390742E+03  0.7818608E-02  0.1267638E+00
          2   -1    0    0  502    0  0.00000000000E+00  0.00000000000E+00  0.20512068097E+02  0.20512068097E+02  0.00000000000E+00 0.  1.
          1   -1    0    0  501    0 -0.00000000000E+00 -0.00000000000E+00 -0.18150720597E+04  0.18150720597E+04  0.00000000000E+00 0.  1.
          2    1    1    2  501    0  0.46431224249E+02 -0.10566869981E+02 -0.24673860577E+03  0.25129157746E+03  0.00000000000E+00 0.  1.
          1    1    1    2  502    0 -0.25614711323E+02 -0.79153419243E+02 -0.12086893520E+04  0.12115491434E+04  0.00000000000E+00 0.  1.
         22    1    1    2    0    0 -0.46166440593E+02 -0.10800920375E+02 -0.72084943412E+02  0.86280004547E+02  0.00000000000E+00 0.  1.
         22    1    1    2    0    0  0.25349927667E+02  0.10052120960E+03 -0.26704709048E+03  0.28646340245E+03  0.00000000000E+00 0.  1.
</event>
<event>
 6    1  0.4069520E-005  0.1849415E+03  0.7818608E-02  0.1291777E+00
          2   -1    0    0  502    0  0.00000000000E+00  0.00000000000E+00  0.65279627536E+02  0.65279627536E+02  0.00000000000E+00 0.  1.
          1   -1    0    0  501    0 -0.00000000000E+00 -0.00000000000E+00 -0.62957981563E+03  0.62957981563E+03  0.00000000000E+00 0.  1.
          2    1    1    2  501    0 -0.43232601427E+02 -0.23589250255E+02 -0.72156366430E+02  0.87361614970E+02  0.00000000000E+00 0.  1.
          1    1    1    2  502    0 -0.10188666519E+02  0.14122231216E+03 -0.34465967715E+03  0.37260950528E+03  0.00000000000E+00 0.  1.
         22    1    1    2    0    0 -0.12077792179E+02  0.40307898837E+01  0.16249181793E+02  0.20643552019E+02  0.00000000000E+00 0.  1.
         22    1    1    2    0    0  0.65499060125E+02 -0.12166385179E+03 -0.16373332631E+03  0.21424477090E+03  0.00000000000E+00 0.  1.
</event>
<event>
 6    1  0.4069520E-005  0.1189916E+03  0.7818608E-02  0.1296096E+00
          2   -1    0    0  502    0  0.00000000000E+00  0.00000000000E+00  0.15918091708E+03  0.15918091708E+03  0.00000000000E+00 0.  1.
          1   -1    0    0  501    0 -0.00000000000E+00 -0.00000000000E+00 -0.14226923290E+03  0.14226923290E+03  0.00000000000E+00 0.  1.
          2    1    1    2  501    0  0.84515912416E+01  0.39137130886E+02 -0.17966411444E+02  0.43885491323E+02  0.00000000000E+00 0.  1.
          1    1    1    2  502    0 -0.25091600608E+02 -0.10992849544E+03  0.24812114955E+02  0.11545346932E+03  0.00000000000E+00 0.  1.
         22    1    1    2    0    0  0.58823034626E+02  0.57888488707E+02 -0.24477048983E+02  0.86083404058E+02  0.00000000000E+00 0.  1.
         22    1    1    2    0    0 -0.42183025260E+02  0.12902875845E+02  0.34543029650E+02  0.56027785272E+02  0.00000000000E+00 0.  1.
</event>
<event>
 6    1  0.4069520E-005  0.1740451E+03  0.7818608E-02  0.1176224E+00
          2   -1    0    0  502    0  0.00000000000E+00  0.00000000000E+00  0.23678100225E+03  0.23678100225E+03  0.00000000000E+00 0. -1.
          1   -1    0    0  501    0 -0.00000000000E+00 -0.00000000000E+00 -0.21809151193E+03  0.21809151193E+03  0.00000000000E+00 0. -1.
          2    1    1    2  501    0 -0.14492804565E+03 -0.11089887668E+03 -0.73004666985E+02  0.19655121639E+03  0.00000000000E+00 0. -1.
          1    1    1    2  502    0  0.65813597276E+02  0.13606330676E+02  0.34224579932E+02  0.75418059458E+02  0.00000000000E+00 0. -1.
         22    1    1    2    0    0 -0.15224673867E+02 -0.18626041154E+02  0.10424344435E+02  0.26218067440E+02  0.00000000000E+00 0. -1.
         22    1    1    2    0    0  0.94339122241E+02  0.11591858715E+03  0.47045232936E+02  0.15668517088E+03  0.00000000000E+00 0. -1.
</event>
<event>
 6    1  0.4069520E-005  0.1922754E+03  0.7818608E-02  0.1188842E+00
          2   -1    0    0  502    0  0.00000000000E+00  0.00000000000E+00  0.11761719862E+03  0.11761719862E+03  0.00000000000E+00 0. -1.
          1   -1    0    0  501    0 -0.00000000000E+00 -0.00000000000E+00 -0.57167952415E+03  0.57167952415E+03  0.00000000000E+00 0. -1.
          2    1    1    2  501    0 -0.64592848910E+02  0.11259502085E+03 -0.23480679837E+03  0.26829854157E+03  0.00000000000E+00 0. -1.
          1    1    1    2  502    0  0.94224077271E+02 -0.18339232809E+03 -0.15452219135E+03  0.25765874787E+03  0.00000000000E+00 0. -1.
         22    1    1    2    0    0  0.41484399213E+02  0.12589554791E+02 -0.56294534342E+02  0.71052986317E+02  0.00000000000E+00 0. -1.
         22    1    1    2    0    0 -0.71115627573E+02  0.58207752449E+02 -0.84388014778E+01  0.92286447004E+02  0.00000000000E+00 0.  1.
</event>
<event>
 6    1  0.4069520E-005  0.7757849E+02  0.7818608E-02  0.1384478E+00
          2   -1    0    0  502    0  0.00000000000E+00  0.00000000000E+00  0.25042493627E+03  0.25042493627E+03  0.00000000000E+00 0. -1.
          1   -1    0    0  501    0 -0.00000000000E+00 -0.00000000000E+00 -0.10450759435E+03  0.10450759435E+03  0.00000000000E+00 0. -1.
          2    1    1    2  501    0 -0.39248967389E+02  0.43311103484E+02 -0.49283379966E+02  0.76453807406E+02  0.00000000000E+00 0. -1.
          1    1    1    2  502    0 -0.64666717040E+01 -0.67310476403E+02  0.71880023027E+02  0.98687667856E+02  0.00000000000E+00 0. -1.
         22    1    1    2    0    0  0.16846851216E+02  0.53114369043E+01 -0.23273089237E+02  0.29217536524E+02  0.00000000000E+00 0. -1.
         22    1    1    2    0    0  0.28868787877E+02  0.18687936015E+02  0.14659378809E+03  0.15057351883E+03  0.00000000000E+00 0.  1.
</event>
<event>
 6    1  0.4069520E-005  0.4233037E+03  0.7818608E-02  0.1148256E+00
          2   -1    0    0  502    0  0.00000000000E+00  0.00000000000E+00  0.20268658737E+03  0.20268658737E+03  0.00000000000E+00 0. -1.
          1   -1    0    0  501    0 -0.00000000000E+00 -0.00000000000E+00 -0.13265051911E+04  0.13265051911E+04  0.00000000000E+00 0. -1.
          2    1    1    2  501    0 -0.18407366189E+03  0.16885822190E+02 -0.27540654472E+02  0.18688694882E+03  0.00000000000E+00 0. -1.
          1    1    1    2  502    0 -0.59721638329E+02  0.57902442560E+02 -0.10536183130E+04  0.10568968334E+04  0.00000000000E+00 0. -1.
         22    1    1    2    0    0  0.22414528649E+03 -0.65233020596E+02 -0.76035919798E+02  0.24551561566E+03  0.00000000000E+00 0. -1.
         22    1    1    2    0    0  0.19650013721E+02 -0.95552441539E+01  0.33376283517E+02  0.39892380619E+02  0.00000000000E+00 0. -1.
</event>
<event>
 6    1  0.4069520E-005  0.9035671E+02  0.7818608E-02  0.1372746E+00
          2   -1    0    0  502    0  0.00000000000E+00  0.00000000000E+00  0.82214157270E+02  0.82214157270E+02  0.00000000000E+00 0.  1.
          1   -1    0    0  501    0 -0.00000000000E+00 -0.00000000000E+00 -0.14127589786E+04  0.14127589786E+04  0.00000000000E+00 0.  1.
          2    1    1    2  501    0  0.80405064624E+02  0.31500703022E+02 -0.16759239731E+03  0.18853243844E+03  0.00000000000E+00 0.  1.
          1    1    1    2  502    0 -0.55486611309E+02 -0.48621678310E+02 -0.11783998965E+04  0.11807070542E+04  0.00000000000E+00 0.  1.
         22    1    1    2    0    0 -0.25672249079E+02 -0.60091490415E+01  0.65490420237E+02  0.70598650042E+02  0.00000000000E+00 0.  1.
         22    1    1    2    0    0  0.75379576410E+00  0.23130124329E+02 -0.50042947748E+02  0.55134993233E+02  0.00000000000E+00 0.  1.
</event>
<event>
 6    1  0.4069520E-005  0.1466593E+03  0.7818608E-02  0.1261962E+00
          2   -1    0    0  502    0  0.00000000000E+00  0.00000000000E+00  0.26498968983E+03  0.26498968983E+03  0.00000000000E+00 0. -1.
          1   -1    0    0  501    0 -0.00000000000E+00 -0.00000000000E+00 -0.18733593028E+03  0.18733593028E+03  0.00000000000E+00 0. -1.
          2    1    1    2  501    0 -0.95236567421E+01 -0.35646854276E+02 -0.52632796535E+02  0.64277597409E+02  0.00000000000E+00 0. -1.
          1    1    1    2  502    0 -0.73752965039E+02  0.32932369383E+02 -0.89069230274E+02  0.12023879818E+03  0.00000000000E+00 0. -1.
         22    1    1    2    0    0  0.17702033760E+02  0.41549646866E+02  0.17257152556E+03  0.17838348183E+03  0.00000000000E+00 0. -1.
         22    1    1    2    0    0  0.65574588020E+02 -0.38835161973E+02  0.46784260795E+02  0.89425742701E+02  0.00000000000E+00 0. -1.
</event>
<event>
 6    1  0.4069520E-005  0.5069257E+03  0.7818608E-02  0.1134565E+00
          2   -1    0    0  502    0  0.00000000000E+00  0.00000000000E+00  0.14149224219E+03  0.14149224219E+03  0.00000000000E+00 0.  1.
          1   -1    0    0  501    0 -0.00000000000E+00 -0.00000000000E+00 -0.74259670412E+03  0.74259670412E+03  0.00000000000E+00 0.  1.
          2    1    1    2  501    0  0.71673960591E+02  0.22097839341E+03 -0.22152764749E+03  0.32100327971E+03  0.00000000000E+00 0.  1.
          1    1    1    2  502    0 -0.64980724954E+02  0.66382680665E+02 -0.42840669919E+02  0.10229603075E+03  0.00000000000E+00 0.  1.
         22    1    1    2    0    0 -0.24893836716E+00 -0.27089035243E+03 -0.34709603745E+03  0.44029229408E+03  0.00000000000E+00 0.  1.
         22    1    1    2    0    0 -0.64442972694E+01 -0.16470721640E+02  0.10359892927E+02  0.20497341781E+02  0.00000000000E+00 0. -1.
</event>
<event>
 6    1  0.4069520E-005  0.5538085E+02  0.7818608E-02  0.1429071E+00
          2   -1    0    0  502    0  0.00000000000E+00  0.00000000000E+00  0.23856665712E+03  0.23856665712E+03  0.00000000000E+00 0.  1.
          1   -1    0    0  501    0 -0.00000000000E+00 -0.00000000000E+00 -0.76199414238E+03  0.76199414238E+03  0.00000000000E+00 0.  1.
          2    1    1    2  501    0  0.17477899373E+02 -0.28733582348E+02  0.13758868699E+03  0.14163948076E+03  0.00000000000E+00 0.  1.
          1    1    1    2  502    0 -0.45481601372E+02  0.21258369670E+02 -0.71774616266E+03  0.71949985987E+03  0.00000000000E+00 0.  1.
         22    1    1    2    0    0  0.34116166139E+02  0.32286699459E+02 -0.25405991614E+02  0.53402323582E+02  0.00000000000E+00 0. -1.
         22    1    1    2    0    0 -0.61124641398E+01 -0.24811486781E+02  0.82135982013E+02  0.86019135287E+02  0.00000000000E+00 0.  1.
</event>
<event>
 6    1  0.4069520E-005  0.1581272E+03  0.7818608E-02  0.1303584E+00
          2   -1    0    0  502    0  0.00000000000E+00  0.00000000000E+00  0.64609203733E+02  0.64609203733E+02  0.00000000000E+00 0. -1.
          1   -1    0    0  501    0 -0.00000000000E+00 -0.00000000000E+00 -0.34740203420E+04  0.34740203420E+04  0.00000000000E+00 0. -1.
          2    1    1    2  501    0  0.76655768175E+02  0.54975493769E+02 -0.76974726364E+03  0.77550581016E+03  0.00000000000E+00 0. -1.
          1    1    1    2  502    0 -0.74784255339E+02 -0.85509054564E+02 -0.26296526250E+04  0.26321051293E+04  0.00000000000E+00 0. -1.
         22    1    1    2    0    0 -0.17957995638E+02  0.27486191293E+02 -0.65444194034E+02  0.73218323198E+02  0.00000000000E+00 0. -1.
         22    1    1    2    0    0  0.16086482802E+02  0.30473695021E+01  0.55432944468E+02  0.57800283063E+02  0.00000000000E+00 0. -1.
</event>
<event>
 6    1  0.4069520E-005  0.8993455E+02  0.7818608E-02  0.1339675E+00
          2   -1    0    0  502    0  0.00000000000E+00  0.00000000000E+00  0.11675261279E+03  0.11675261279E+03  0.00000000000E+00 0. -1.
          1   -1    0    0  501    0 -0.00000000000E+00 -0.00000000000E+00 -0.12194669567E+04  0.12194669567E+04  0.00000000000E+00 0. -1.
          2    1    1    2  501    0 -0.82245986734E+02  0.66930347922E+02 -0.43712191560E+03  0.44979955859E+03  0.00000000000E+00 0. -1.
          1    1    1    2  502    0  0.38948825742E+02 -0.51328431973E+02 -0.73262705183E+03  0.73545497213E+03  0.00000000000E+00 0. -1.
         22    1    1    2    0    0  0.36536312893E+02 -0.29195195046E+02  0.10234761040E+03  0.11252686314E+03  0.00000000000E+00 0. -1.
         22    1    1    2    0    0  0.67608480992E+01  0.13593279096E+02 -0.35312986900E+02  0.38438175651E+02  0.00000000000E+00 0.  1.
</event>
<event>
 6    1  0.4069520E-005  0.1301164E+03  0.7818608E-02  0.1350387E+00
          2   -1    0    0  502    0  0.00000000000E+00  0.00000000000E+00  0.18534213572E+02  0.18534213572E+02  0.00000000000E+00 0. -1.
          1   -1    0    0  501    0 -0.00000000000E+00 -0.00000000000E+00 -0.21901667906E+04  0.21901667906E+04  0.00000000000E+00 0. -1.
          2    1    1    2  501    0 -0.35962854235E+02 -0.25350940213E+02 -0.15248715465E+03  0.15870831543E+03  0.00000000000E+00 0. -1.
          1    1    1    2  502    0 -0.37336801521E+02  0.13109187678E+01 -0.16994425117E+04  0.16998531130E+04  0.00000000000E+00 0. -1.
         22    1    1    2    0    0 -0.10896158833E+02 -0.68032154231E+01  0.46186957104E+01  0.13650727727E+02  0.00000000000E+00 0. -1.
         22    1    1    2    0    0  0.84195814590E+02  0.30843236868E+02 -0.32432160634E+03  0.33648884795E+03  0.00000000000E+00 0. -1.
</event>
<event>
 6    1  0.4069520E-005  0.1169184E+03  0.7818608E-02  0.1368053E+00
          2   -1    0    0  502    0  0.00000000000E+00  0.00000000000E+00  0.78149901262E+02  0.78149901262E+02  0.00000000000E+00 0.  1.
          1   -1    0    0  501    0 -0.00000000000E+00 -0.00000000000E+00 -0.36826319696E+03  0.36826319696E+03  0.00000000000E+00 0.  1.
          2    1    1    2  501    0  0.50731738989E+02  0.40219182239E+02 -0.86185014109E+02  0.10779215471E+03  0.00000000000E+00 0.  1.
          1    1    1    2  502    0 -0.85936792001E+02 -0.15552817134E+02 -0.18458325981E+03  0.20420088673E+03  0.00000000000E+00 0.  1.
         22    1    1    2    0    0  0.23291603198E-01  0.13152236087E+02  0.47873797420E+02  0.49647581371E+02  0.00000000000E+00 0.  1.
         22    1    1    2    0    0  0.35181761409E+02 -0.37818601192E+02 -0.67218819205E+02  0.84772475411E+02  0.00000000000E+00 0.  1.
</event>
<event>
 6    1  0.4069520E-005  0.1069826E+03  0.7818608E-02  0.1297719E+00
          2   -1    0    0  502    0  0.00000000000E+00  0.00000000000E+00  0.20123427885E+03  0.20123427885E+03  0.00000000000E+00 0.  1.
          1   -1    0    0  501    0 -0.00000000000E+00 -0.00000000000E+00 -0.80112821621E+02  0.80112821621E+02  0.00000000000E+00 0. -1.
          2    1    1    2  501    0  0.48005757208E+02  0.19855178502E+02  0.62654862400E+02  0.81390494659E+02  0.00000000000E+00 0.  1.
          1    1    1    2  502    0 -0.16703498090E+02 -0.11532820960E+02 -0.35345314241E+02  0.40759097715E+02  0.00000000000E+00 0. -1.
         22    1    1    2    0    0  0.16221652291E+02 -0.40615457182E+02 -0.58844097977E+01  0.44129169988E+02  0.00000000000E+00 0.  1.
         22    1    1    2    0    0 -0.47523911409E+02  0.32293099640E+02  0.99696318870E+02  0.11506833811E+03  0.00000000000E+00 0.  1.
</event>
<event>
 6    1  0.4069520E-005  0.2431258E+03  0.7818608E-02  0.1118519E+00
          2   -1    0    0  502    0  0.00000000000E+00  0.00000000000E+00  0.18944627462E+04  0.18944627462E+04  0.00000000000E+00 0. -1.
          1   -1    0    0  501    0 -0.00000000000E+00 -0.00000000000E+00 -0.78867917790E+02  0.78867917790E+02  0.00000000000E+00 0. -1.
          2    1    1    2  501    0 -0.16842434969E+03 -0.13362332052E+03  0.20420024510E+03  0.29651255193E+03  0.00000000000E+00 0. -1.
          1    1    1    2  502    0  0.74632755660E+02 -0.84694982539E+02  0.13574232360E+03  0.17654819937E+03  0.00000000000E+00 0. -1.
         22    1    1    2    0    0  0.15534572451E+01 -0.10399229926E+02  0.11866168017E+02  0.15854436473E+02  0.00000000000E+00 0. -1.
         22    1    1    2    0    0  0.92238136785E+02  0.22871753299E+03  0.14637860917E+04  0.14844154762E+04  0.00000000000E+00 0. -1.
</event>
<event>
 6    1  0.4069520E-005  0.5559809E+02  0.7818608E-02  0.1422684E+00
          2   -1    0    0  502    0  0.00000000000E+00  0.00000000000E+00  0.12523276808E+03  0.12523276808E+03  0.00000000000E+00 0. -1.
          1   -1    0    0  501    0 -0.00000000000E+00 -0.00000000000E+00 -0.28473945991E+03  0.28473945991E+03  0.00000000000E+00 0. -1.
          2    1    1    2  501    0 -0.21168797208E+02  0.54755354870E+02 -0.16713546348E+03  0.17714550520E+03  0.00000000000E+00 0. -1.
          1    1    1    2  502    0 -0.12257291829E+02 -0.39246577473E+02 -0.68848101511E+02  0.80190997799E+02  0.00000000000E+00 0. -1.
         22    1    1    2    0    0  0.36466010905E+02 -0.35164119847E+02  0.10574281813E+03  0.11725113587E+03  0.00000000000E+00 0. -1.
         22    1    1    2    0    0 -0.30399218680E+01  0.19655342450E+02 -0.29265944971E+02  0.35384589115E+02  0.00000000000E+00 0.  1.
</event>
<event>
 6    1  0.4069520E-005  0.6175386E+02  0.7818608E-02  0.1395874E+00
          2   -1    0    0  502    0  0.00000000000E+00  0.00000000000E+00  0.19599002767E+03  0.19599002767E+03  0.00000000000E+00 0. -1.
          1   -1    0    0  501    0 -0.00000000000E+00 -0.00000000000E+00 -0.20396043974E+03  0.20396043974E+03  0.00000000000E+00 0. -1.
          2    1    1    2  501    0 -0.88572582390E+01  0.58243592007E+02 -0.15055889840E+03  0.16167482464E+03  0.00000000000E+00 0. -1.
          1    1    1    2  502    0 -0.16866440422E+02 -0.17979684630E+02 -0.17980611446E+02  0.30513083421E+02  0.00000000000E+00 0. -1.
         22    1    1    2    0    0  0.34878018347E+02 -0.44674167759E+02  0.17842908058E+03  0.18721430027E+03  0.00000000000E+00 0. -1.
         22    1    1    2    0    0 -0.91543196856E+01  0.44102603808E+01 -0.17859982808E+02  0.20548259086E+02  0.00000000000E+00 0.  1.
</event>
<event>
 6    1  0.4069520E-005  0.7479187E+02  0.7818608E-02  0.1356340E+00
          2   -1    0    0  502    0  0.00000000000E+00  0.00000000000E+00  0.61186111161E+02  0.61186111161E+02  0.00000000000E+00 0.  1.
          1   -1    0    0  501    0 -0.00000000000E+00 -0.00000000000E+00 -0.33929425029E+03  0.33929425029E+03  0.00000000000E+00 0.  1.
          2    1    1    2  501    0 -0.21925382341E+02  0.15312711638E+02 -0.81943065003E+02  0.86196678768E+02  0.00000000000E+00 0.  1.
          1    1    1    2  502    0  0.80530285379E+02 -0.88636856539E+01 -0.14100281403E+03  0.16262067935E+03  0.00000000000E+00 0.  1.
         22    1    1    2    0    0 -0.37597875261E+02 -0.48207436138E+02  0.18981027280E+02  0.64014346202E+02  0.00000000000E+00 0.  1.
         22    1    1    2    0    0 -0.21007027777E+02  0.41758410154E+02 -0.74143287373E+02  0.87648657132E+02  0.00000000000E+00 0.  1.
</event>
<event>
 6    1  0.4069520E-005  0.8040564E+02  0.7818608E-02  0.1329866E+00
          2   -1    0    0  502    0  0.00000000000E+00  0.00000000000E+00  0.12955789699E+02  0.12955789699E+02  0.00000000000E+00 0. -1.
          1   -1    0    0  501    0 -0.00000000000E+00 -0.00000000000E+00 -0.10324970699E+04  0.10324970699E+04  0.00000000000E+00 0. -1.
          2    1    1    2  501    0 -0.19763796674E+02  0.24472023054E+02 -0.88356907738E+02  0.93789288921E+02  0.00000000000E+00 0. -1.
          1    1    1    2  502    0 -0.18211076883E+02 -0.56716620722E+02 -0.33694945567E+03  0.34217444975E+03  0.00000000000E+00 0. -1.
         22    1    1    2    0    0 -0.43879765724E+02  0.30845135278E+02 -0.23324377841E+03  0.23933139447E+03  0.00000000000E+00 0. -1.
         22    1    1    2    0    0  0.81854639280E+02  0.13994623903E+01 -0.36099113840E+03  0.37015772647E+03  0.00000000000E+00 0. -1.
</event>
<event>
 6    1  0.4069520E-005  0.1536380E+03  0.7818608E-02  0.1280063E+00
          2   -1    0    0  502    0  0.00000000000E+00  0.00000000000E+00  0.50175999656E+02  0.50175999656E+02  0.00000000000E+00 0.  1.
          1   -1    0    0  501    0 -0.00000000000E+00 -0.00000000000E+00 -0.88395396979E+03  0.88395396979E+03  0.00000000000E+00 0. -1.
          2    1    1    2  501    0 -0.45109546075E+02  0.39520084938E+02 -0.91613515521E+02  0.10949769170E+03  0.00000000000E+00 0.  1.
          1    1    1    2  502    0 -0.17527280291E+02  0.15560120145E+02 -0.64742806116E+03  0.64785215695E+03  0.00000000000E+00 0. -1.
         22    1    1    2    0    0  0.10594167005E+02  0.25295560634E+02  0.14904457072E+02  0.31212891615E+02  0.00000000000E+00 0.  1.
         22    1    1    2    0    0  0.52042659361E+02 -0.80375765717E+02 -0.10964085053E+03  0.14556722919E+03  0.00000000000E+00 0. -1.
</event>
<event>
 6    1  0.4069520E-005  0.8289041E+02  0.7818608E-02  0.1390398E+00
          2   -1    0    0  502    0  0.00000000000E+00  0.00000000000E+00  0.37867508577E+02  0.37867508577E+02  0.00000000000E+00 0. -1.
          1   -1    0    0  501    0 -0.00000000000E+00 -0.00000000000E+00 -0.76894218887E+03  0.76894218887E+03  0.00000000000E+00 0. -1.
          2    1    1    2  501    0 -0.54660248805E+02 -0.35696522017E+02 -0.43209866104E+03  0.43700255989E+03  0.00000000000E+00 0. -1.
          1    1    1    2  502    0  0.50252544647E+02  0.39666633982E+02 -0.20443413801E+03  0.21422436108E+03  0.00000000000E+00 0. -1.
         22    1    1    2    0    0  0.15684474308E+02  0.20264239797E+02  0.23368654170E+02  0.34680486539E+02  0.00000000000E+00 0. -1.
         22    1    1    2    0    0 -0.11276770150E+02 -0.24234351762E+02 -0.11791053541E+03  0.12090228994E+03  0.00000000000E+00 0. -1.
</event>
<event>
 6    1  0.4069520E-005  0.7599188E+02  0.7818608E-02  0.1457680E+00
          2   -1    0    0  502    0  0.00000000000E+00  0.00000000000E+00  0.83704128587E+02  0.83704128587E+02  0.00000000000E+00 0. -1.
          1   -1    0    0  501    0 -0.00000000000E+00 -0.00000000000E+00 -0.18621135181E+03  0.18621135181E+03  0.00000000000E+00 0. -1.
          2    1    1    2  501    0  0.40926767659E+02 -0.32516751820E+02 -0.69689774673E+02  0.87114890541E+02  0.00000000000E+00 0. -1.
          1    1    1    2  502    0 -0.12765865979E+02  0.28312400742E+02 -0.41111559854E+02  0.51523972320E+02  0.00000000000E+00 0. -1.
         22    1    1    2    0    0 -0.31754983356E+01  0.11447056303E+02  0.66483807624E+02  0.67536771938E+02  0.00000000000E+00 0. -1.
         22    1    1    2    0    0 -0.24985403344E+02 -0.72427052250E+01 -0.58189696322E+02  0.63739845602E+02  0.00000000000E+00 0. -1.
</event>
<event>
 6    1  0.5042010E-005  0.1606792E+03  0.7818608E-02  0.1269733E+00
          2   -1    0    0  502    0  0.00000000000E+00  0.00000000000E+00  0.18781163177E+03  0.18781163177E+03  0.00000000000E+00 0. -1.
          1   -1    0    0  501    0 -0.00000000000E+00 -0.00000000000E+00 -0.52837937528E+03  0.52837937528E+03  0.00000000000E+00 0. -1.
          2    1    1    2  501    0  0.34323025176E+02  0.22885331843E+02 -0.20544041742E+02  0.46085422011E+02  0.00000000000E+00 0. -1.
          1    1    1    2  502    0 -0.13350519723E+02 -0.50921546432E+02 -0.47103094558E+03  0.47396349223E+03  0.00000000000E+00 0. -1.
         22    1    1    2    0    0  0.26407113930E+02 -0.13196356306E+02 -0.31424845895E+01  0.29687618552E+02  0.00000000000E+00 0. -1.
         22    1    1    2    0    0 -0.47379619384E+02  0.41232570895E+02  0.15414972841E+03  0.16645447427E+03  0.00000000000E+00 0. -1.
</event>
<event>
 6    1  0.4069520E-005  0.8612357E+02  0.7818608E-02  0.1313963E+00
          2   -1    0    0  502    0  0.00000000000E+00  0.00000000000E+00  0.40814260925E+03  0.40814260925E+03  0.00000000000E+00 0.  1.
          1   -1    0    0  501    0 -0.00000000000E+00 -0.00000000000E+00 -0.39058680051E+03  0.39058680051E+03  0.00000000000E+00 0. -1.
          2    1    1    2  501    0  0.34814450927E+01  0.32691903809E+02  0.24390841165E+02  0.40936465008E+02  0.00000000000E+00 0.  1.
          1    1    1    2  502    0 -0.54491534133E+02  0.72681636157E+01 -0.36677914711E+03  0.37087611982E+03  0.00000000000E+00 0. -1.
         22    1    1    2    0    0  0.48318682584E+01  0.41515089771E+02  0.63406973501E+02  0.75942701546E+02  0.00000000000E+00 0.  1.
         22    1    1    2    0    0  0.46178220782E+02 -0.81475157196E+02  0.29653714119E+03  0.31097412339E+03  0.00000000000E+00 0.  1.
</event>
<event>
 6    1  0.4069520E-005  0.1108682E+03  0.7818608E-02  0.1382798E+00
          2   -1    0    0  502    0  0.00000000000E+00  0.00000000000E+00  0.34431785462E+02  0.34431785462E+02  0.00000000000E+00 0. -1.
          1   -1    0    0  501    0 -0.00000000000E+00 -0.00000000000E+00 -0.10791849494E+04  0.10791849494E+04  0.00000000000E+00 0. -1.
          2    1    1    2  501    0  0.35682533383E+02 -0.86576053149E+01 -0.44879332956E+02  0.57985790027E+02  0.00000000000E+00 0. -1.
          1    1    1    2  502    0 -0.61239878627E+02  0.72126332042E+02 -0.82319512192E+03  0.82861495236E+03  0.00000000000E+00 0. -1.
         22    1    1    2    0    0  0.18880400683E+02 -0.53368411492E+02 -0.19611224972E+03  0.20411925771E+03  0.00000000000E+00 0. -1.
         22    1    1    2    0    0  0.66769445610E+01 -0.10100315235E+02  0.19433540712E+02  0.22896734726E+02  0.00000000000E+00 0. -1.
</event>
<event>
 6    1  0.4069520E-005  0.2258131E+03  0.7818608E-02  0.1261537E+00
          2   -1    0    0  502    0  0.00000000000E+00  0.00000000000E+00  0.12037551884E+03  0.12037551884E+03  0.00000000000E+00 0.  1.
          1   -1    0    0  501    0 -0.00000000000E+00 -0.00000000000E+00 -0.23002401941E+04  0.23002401941E+04  0.00000000000E+00 0.  1.
          2    1    1    2  501    0 -0.13341024347E+03  0.75183624946E+02 -0.52393996129E+02  0.16185178823E+03  0.00000000000E+00 0.  1.
          1    1    1    2  502    0  0.20064000913E+03 -0.50858181188E+02 -0.21052342042E+04  0.21153850766E+04  0.00000000000E+00 0.  1.
         22    1    1    2    0    0 -0.21988039139E+01 -0.12280862118E+02  0.46409020063E+02  0.48056752452E+02  0.00000000000E+00 0.  1.
         22    1    1    2    0    0 -0.65030961750E+02 -0.12044581639E+02 -0.68645494987E+02  0.95322095628E+02  0.00000000000E+00 0.  1.
</event>
<event>
 6    1  0.4069520E-005  0.9242633E+02  0.7818608E-02  0.1322897E+00
          2   -1    0    0  502    0  0.00000000000E+00  0.00000000000E+00  0.15094931533E+03  0.15094931533E+03  0.00000000000E+00 0.  1.
          1   -1    0    0  501    0 -0.00000000000E+00 -0.00000000000E+00 -0.27047774598E+03  0.27047774598E+03  0.00000000000E+00 0.  1.
          2    1    1    2  501    0 -0.27806777907E+00 -0.47506401282E+02 -0.90112978254E+02  0.10186895668E+03  0.00000000000E+00 0.  1.
          1    1    1    2  502    0 -0.72618247714E+02  0.10647534501E+02 -0.12370682160E+03  0.14384073694E+03  0.00000000000E+00 0.  1.
         22    1    1    2    0    0  0.37791178445E+02 -0.91195327961E+01 -0.22833636888E+02  0.45085629864E+02  0.00000000000E+00 0.  1.
         22    1    1    2    0    0  0.35105137049E+02  0.45978399576E+02  0.11712500610E+03  0.13063173783E+03  0.00000000000E+00 0.  1.
</event>
<event>
 6    1  0.4069520E-005  0.7944411E+02  0.7818608E-02  0.1408245E+00
          2   -1    0    0  502    0  0.00000000000E+00  0.00000000000E+00  0.10567651003E+03  0.10567651003E+03  0.00000000000E+00 0. -1.
          1   -1    0    0  501    0 -0.00000000000E+00 -0.00000000000E+00 -0.14768401558E+03  0.14768401558E+03  0.00000000000E+00 0. -1.
          2    1    1    2  501    0  0.26511956152E+02  0.46303855632E+02 -0.33731181552E+02  0.63124666132E+02  0.00000000000E+00 0. -1.
          1    1    1    2  502    0 -0.37242801286E+02 -0.25498259207E+02 -0.33612552025E+02  0.56276026192E+02  0.00000000000E+00 0. -1.
         22    1    1    2    0    0 -0.79748553223E+01 -0.93511482767E+01 -0.52072687415E+02  0.53503336963E+02  0.00000000000E+00 0. -1.
         22    1    1    2    0    0  0.18705700457E+02 -0.11454448148E+02  0.77408915436E+02  0.80456496325E+02  0.00000000000E+00 0. -1.
</event>
<event>
 6    1  0.4069520E-005  0.1353378E+03  0.7818608E-02  0.1239098E+00
          2   -1    0    0  502    0  0.00000000000E+00  0.00000000000E+00  0.53461246033E+03  0.53461246033E+03  0.00000000000E+00 0. -1.
          1   -1    0    0  501    0 -0.00000000000E+00 -0.00000000000E+00 -0.99131097089E+02  0.99131097089E+02  0.00000000000E+00 0. -1.
          2    1    1    2  501    0 -0.28561682901E+02  0.95120094184E+02 -0.22024727977E+02  0.10172851464E+03  0.00000000000E+00 0. -1.
          1    1    1    2  502    0 -0.80663279148E+02 -0.38719567153E+02  0.10123656379E+03  0.13510962709E+03  0.00000000000E+00 0. -1.
         22    1    1    2    0    0  0.37994755977E+02  0.38073086636E+01  0.11701337044E+02  0.39937681075E+02  0.00000000000E+00 0.  1.
         22    1    1    2    0    0  0.71230206072E+02 -0.60207835695E+02  0.34456819038E+03  0.35696773462E+03  0.00000000000E+00 0.  1.
</event>
<event>
 6    1  0.4069520E-005  0.6754415E+02  0.7818608E-02  0.1371416E+00
          2   -1    0    0  502    0  0.00000000000E+00  0.00000000000E+00  0.23075306736E+03  0.23075306736E+03  0.00000000000E+00 0. -1.
          1   -1    0    0  501    0 -0.00000000000E+00 -0.00000000000E+00 -0.82631034030E+03  0.82631034030E+03  0.00000000000E+00 0.  1.
          2    1    1    2  501    0  0.33066921675E+02 -0.38035870239E+02  0.12802366364E+03  0.13758708946E+03  0.00000000000E+00 0. -1.
          1    1    1    2  502    0  0.26653848725E+02  0.96015041998E+01 -0.76828188631E+03  0.76880405394E+03  0.00000000000E+00 0.  1.
         22    1    1    2    0    0 -0.72517213578E+02  0.33974344283E+02 -0.21582006075E+02  0.82938442961E+02  0.00000000000E+00 0. -1.
         22    1    1    2    0    0  0.12796443179E+02 -0.55399782446E+01  0.66282955795E+02  0.67733821285E+02  0.00000000000E+00 0. -1.
</event>
<event>
 6    1  0.4069520E-005  0.1460346E+03  0.7818608E-02  0.1300794E+00
          2   -1    0    0  502    0  0.00000000000E+00  0.00000000000E+00  0.22555506557E+03  0.22555506557E+03  0.00000000000E+00 0.  1.
          1   -1    0    0  501    0 -0.00000000000E+00 -0.00000000000E+00 -0.32436529386E+03  0.32436529386E+03  0.00000000000E+00 0.  1.
          2    1    1    2  501    0 -0.35326346487E+02 -0.25098214813E+02 -0.30853274140E+02  0.53195823784E+02  0.00000000000E+00 0.  1.
          1    1    1    2  502    0 -0.59865548332E+01  0.73468105899E+02 -0.25399963736E+03  0.26447914323E+03  0.00000000000E+00 0.  1.
         22    1    1    2    0    0 -0.19674435744E+02  0.95714662817E+01  0.12844164137E+03  0.13029179416E+03  0.00000000000E+00 0.  1.
         22    1    1    2    0    0  0.60987337064E+02 -0.57941357368E+02  0.57601041839E+02  0.10195359825E+03  0.00000000000E+00 0.  1.
</event>
<event>
 6    1  0.4069520E-005  0.8244425E+02  0.7818608E-02  0.1413680E+00
          2   -1    0    0  502    0  0.00000000000E+00  0.00000000000E+00  0.79567489491E+02  0.79567489491E+02  0.00000000000E+00 0.  1.
          1   -1    0    0  501    0 -0.00000000000E+00 -0.00000000000E+00 -0.41257619209E+03  0.41257619209E+03  0.00000000000E+00 0. -1.
          2    1    1    2  501    0  0.11097366860E+02  0.59209155355E+02 -0.13813257125E+03  0.15069665846E+03  0.00000000000E+00 0.  1.
          1    1    1    2  502    0 -0.52085153613E+01 -0.89020215685E+02 -0.19588466122E+03  0.21522668964E+03  0.00000000000E+00 0. -1.
         22    1    1    2    0    0 -0.37249676331E+01  0.11909380489E+02 -0.60680325177E+02  0.61950065303E+02  0.00000000000E+00 0. -1.
         22    1    1    2    0    0 -0.21638838659E+01  0.17901679841E+02  0.61688855050E+02  0.64270268179E+02  0.00000000000E+00 0.  1.
</event>
<event>
 6    1  0.4069520E-005  0.7795466E+02  0.7818608E-02  0.1367270E+00
          2   -1    0    0  502    0  0.00000000000E+00  0.00000000000E+00  0.16811180704E+03  0.16811180704E+03  0.00000000000E+00 0. -1.
          1   -1    0    0  501    0 -0.00000000000E+00 -0.00000000000E+00 -0.23691900715E+03  0.23691900715E+03  0.00000000000E+00 0. -1.
          2    1    1    2  501    0 -0.42919856318E+02  0.45540958064E+02 -0.14887640837E+03  0.16149389430E+03  0.00000000000E+00 0. -1.
          1    1    1    2  502    0  0.66800495123E+02 -0.27093593005E+02 -0.27449187746E+02  0.77135120655E+02  0.00000000000E+00 0. -1.
         22    1    1    2    0    0  0.60442138826E+01  0.15099179761E+02 -0.23107323243E+02  0.28257143139E+02  0.00000000000E+00 0. -1.
         22    1    1    2    0    0 -0.29924852688E+02 -0.33546544820E+02  0.13062571925E+03  0.13814465609E+03  0.00000000000E+00 0. -1.
</event>
<event>
 6    1  0.4069520E-005  0.1302858E+03  0.7818608E-02  0.1233788E+00
          2   -1    0    0  502    0  0.00000000000E+00  0.00000000000E+00  0.25468585222E+03  0.25468585222E+03  0.00000000000E+00 0. -1.
          1   -1    0    0  501    0 -0.00000000000E+00 -0.00000000000E+00 -0.24247315707E+03  0.24247315707E+03  0.00000000000E+00 0. -1.
          2    1    1    2  501    0  0.45833066718E+02  0.19210541602E+02  0.37951107879E+02  0.62530004819E+02  0.00000000000E+00 0. -1.
          1    1    1    2  502    0 -0.10456761157E+03  0.88550517572E+02 -0.16309306865E+03  0.21301391643E+03  0.00000000000E+00 0. -1.
         22    1    1    2    0    0  0.13785624885E+02 -0.11249179677E+03  0.51278509105E+02  0.12439426550E+03  0.00000000000E+00 0. -1.
         22    1    1    2    0    0  0.44948919968E+02  0.47307375948E+01  0.86076146819E+02  0.97220822541E+02  0.00000000000E+00 0.  1.
</event>
<event>
 6    1  0.4069520E-005  0.6633227E+02  0.7818608E-02  0.1434968E+00
          2   -1    0    0  502    0  0.00000000000E+00  0.00000000000E+00  0.76693905894E+02  0.76693905894E+02  0.00000000000E+00 0.  1.
          1   -1    0    0  501    0 -0.00000000000E+00 -0.00000000000E+00 -0.16355851952E+04  0.16355851952E+04  0.00000000000E+00 0.  1.
          2    1    1    2  501    0 -0.18318584706E+02  0.29151013491E+02 -0.52573464784E+02  0.62843626030E+02  0.00000000000E+00 0.  1.
          1    1    1    2  502    0  0.56136219670E+02 -0.16882029551E+02 -0.15164541250E+04  0.15175866998E+04  0.00000000000E+00 0.  1.
         22    1    1    2    0    0  0.55014029605E+01 -0.24392003830E+02  0.59814511449E+02  0.64830633695E+02  0.00000000000E+00 0. -1.
         22    1    1    2    0    0 -0.43319037925E+02  0.12123019890E+02 -0.49678210954E+02  0.67018141586E+02  0.00000000000E+00 0.  1.
</event>
<event>
 6    1  0.4069520E-005  0.2855228E+03  0.7818608E-02  0.1185827E+00
          2   -1    0    0  502    0  0.00000000000E+00  0.00000000000E+00  0.43592490748E+03  0.43592490748E+03  0.00000000000E+00 0.  1.
          1   -1    0    0  501    0 -0.00000000000E+00 -0.00000000000E+00 -0.25833696560E+03  0.25833696560E+03  0.00000000000E+00 0.  1.
          2    1    1    2  501    0  0.11907175851E+03 -0.46825429314E+02  0.19188869595E+03  0.23063385731E+03  0.00000000000E+00 0.  1.
          1    1    1    2  502    0 -0.22681971194E+03 -0.33739962194E+02 -0.10922313823E+03  0.25399854468E+03  0.00000000000E+00 0.  1.
         22    1    1    2    0    0  0.12909465333E+03  0.59476680021E+02  0.41020004976E+02  0.14793764157E+03  0.00000000000E+00 0.  1.
         22    1    1    2    0    0 -0.21346699900E+02  0.21088711487E+02  0.53902379183E+02  0.61691829527E+02  0.00000000000E+00 0.  1.
</event>
<event>
 6    1  0.4069520E-005  0.2684215E+03  0.7818608E-02  0.1169776E+00
          2   -1    0    0  502    0  0.00000000000E+00  0.00000000000E+00  0.19917425542E+03  0.19917425542E+03  0.00000000000E+00 0.  1.
          1   -1    0    0  501    0 -0.00000000000E+00 -0.00000000000E+00 -0.77834842365E+03  0.77834842365E+03  0.00000000000E+00 0. -1.
          2    1    1    2  501    0  0.27779970713E+02  0.19072357537E+03 -0.14460607324E+03  0.24095253763E+03  0.00000000000E+00 0.  1.
          1    1    1    2  502    0  0.37879836503E+02 -0.23694003234E+03 -0.51266409910E+03  0.56603881443E+03  0.00000000000E+00 0. -1.
         22    1    1    2    0    0 -0.46627246009E+02 -0.20454522362E+01 -0.26575910376E+02  0.53708127481E+02  0.00000000000E+00 0.  1.
         22    1    1    2    0    0 -0.19032561208E+02  0.48261909213E+02  0.10467191448E+03  0.11682319953E+03  0.00000000000E+00 0. -1.
</event>
<event>
 6    1  0.4069520E-005  0.2495823E+03  0.7818608E-02  0.1226821E+00
          2   -1    0    0  502    0  0.00000000000E+00  0.00000000000E+00  0.83879563138E+02  0.83879563138E+02  0.00000000000E+00 0.  1.
          1   -1    0    0  501    0 -0.00000000000E+00 -0.00000000000E+00 -0.75333745044E+03  0.75333745044E+03  0.00000000000E+00 0.  1.
          2    1    1    2  501    0 -0.93171595001E+02  0.10582892730E+03 -0.17522204735E+03  0.22490770073E+03  0.00000000000E+00 0.  1.
          1    1    1    2  502    0  0.17545730679E+03 -0.54770127131E+02 -0.37220291242E+03  0.41511449185E+03  0.00000000000E+00 0.  1.
         22    1    1    2    0    0  0.16239847669E+02  0.90975590331E+01  0.10551873160E+02  0.21397202150E+02  0.00000000000E+00 0.  1.
         22    1    1    2    0    0 -0.98525559458E+02 -0.60156359199E+02 -0.13258480069E+03  0.17579761885E+03  0.00000000000E+00 0. -1.
</event>
<event>
 6    1  0.4069520E-005  0.8196863E+02  0.7818608E-02  0.1348108E+00
          2   -1    0    0  502    0  0.00000000000E+00  0.00000000000E+00  0.45052624091E+02  0.45052624091E+02  0.00000000000E+00 0. -1.
          1   -1    0    0  501    0 -0.00000000000E+00 -0.00000000000E+00 -0.31778179858E+03  0.31778179858E+03  0.00000000000E+00 0. -1.
          2    1    1    2  501    0 -0.17704522153E+02 -0.97295587434E+01 -0.39802784678E+02  0.44636040216E+02  0.00000000000E+00 0. -1.
          1    1    1    2  502    0  0.64750923186E+02  0.45373083083E+02 -0.10404115924E+03  0.13067502262E+03  0.00000000000E+00 0. -1.
         22    1    1    2    0    0 -0.44440288726E+02  0.29645035686E+02 -0.13786184907E+02  0.55170882693E+02  0.00000000000E+00 0. -1.
         22    1    1    2    0    0 -0.26061123075E+01 -0.65288560026E+02 -0.11509904566E+03  0.13235247714E+03  0.00000000000E+00 0. -1.
</event>
<event>
 6    1  0.4069520E-005  0.1330189E+03  0.7818608E-02  0.1255461E+00
          2   -1    0    0  502    0  0.00000000000E+00  0.00000000000E+00  0.20823944324E+02  0.20823944324E+02  0.00000000000E+00 0.  1.
          1   -1    0    0  501    0 -0.00000000000E+00 -0.00000000000E+00 -0.27769021569E+04  0.27769021569E+04  0.00000000000E+00 0. -1.
          2    1    1    2  501    0 -0.32260812427E+02  0.25014637231E+02 -0.21775801430E+03  0.22155144975E+03  0.00000000000E+00 0.  1.
          1    1    1    2  502    0  0.38934256317E+02 -0.58680619255E+02 -0.23357369290E+04  0.23367982996E+04  0.00000000000E+00 0. -1.
         22    1    1    2    0    0 -0.10742229404E+02  0.67954737837E+02 -0.19090836309E+03  0.20292669855E+03  0.00000000000E+00 0.  1.
         22    1    1    2    0    0  0.40687855131E+01 -0.34288755813E+02 -0.11674906102E+02  0.36449653266E+02  0.00000000000E+00 0.  1.
</event>
<event>
 6    1  0.4069520E-005  0.7636549E+02  0.7818608E-02  0.1353418E+00
          2   -1    0    0  502    0  0.00000000000E+00  0.00000000000E+00  0.14342955941E+03  0.14342955941E+03  0.00000000000E+00 0.  1.
          1   -1    0    0  501    0 -0.00000000000E+00 -0.00000000000E+00 -0.26922653785E+03  0.26922653785E+03  0.00000000000E+00 0.  1.
          2    1    1    2  501    0  0.38542795010E+02 -0.27952184326E+02 -0.59174750391E+02  0.75950791567E+02  0.00000000000E+00 0.  1.
          1    1    1    2  502    0 -0.29856077096E+02  0.85816120973E+01 -0.16892972922E+03  0.17176228580E+03  0.00000000000E+00 0.  1.
         22    1    1    2    0    0  0.41528685358E+02 -0.98577840086E+01 -0.49404237237E+01  0.42967608727E+02  0.00000000000E+00 0.  1.
         22    1    1    2    0    0 -0.50215403272E+02  0.29228356237E+02  0.10724792490E+03  0.12197541117E+03  0.00000000000E+00 0.  1.
</event>
<event>
 6    1  0.4069520E-005  0.2198767E+03  0.7818608E-02  0.1194912E+00
          2   -1    0    0  502    0  0.00000000000E+00  0.00000000000E+00  0.18038341767E+03  0.18038341767E+03  0.00000000000E+00 0.  1.
          1   -1    0    0  501    0 -0.00000000000E+00 -0.00000000000E+00 -0.15228306473E+04  0.15228306473E+04  0.00000000000E+00 0.  1.
          2    1    1    2  501    0 -0.22569348258E+03 -0.37902688195E+02 -0.23781540233E+03  0.33004594746E+03  0.00000000000E+00 0.  1.
          1    1    1    2  502    0  0.21009059538E+03 -0.91709914358E+01 -0.11928911069E+04  0.12112850029E+04  0.00000000000E+00 0.  1.
         22    1    1    2    0    0  0.38319896755E+02  0.37710724168E+02  0.11415722891E+03  0.12618393764E+03  0.00000000000E+00 0. -1.
         22    1    1    2    0    0 -0.22717009554E+02  0.93629554627E+01 -0.25897949371E+02  0.35699177017E+02  0.00000000000E+00 0. -1.
</event>
<event>
 6    1  0.4069520E-005  0.8054401E+02  0.7818608E-02  0.1346644E+00
          2   -1    0    0  502    0  0.00000000000E+00  0.00000000000E+00  0.21904374559E+02  0.21904374559E+02  0.00000000000E+00 0.  1.
          1   -1    0    0  501    0 -0.00000000000E+00 -0.00000000000E+00 -0.19401805408E+04  0.19401805408E+04  0.00000000000E+00 0.  1.
          2    1    1    2  501    0 -0.14695585036E+02  0.19699898205E+02 -0.76908472422E+02  0.80740072697E+02  0.00000000000E+00 0.  1.
          1    1    1    2  502    0 -0.23383997535E+02  0.89189732172E+01 -0.16302442127E+04  0.16304363074E+04  0.00000000000E+00 0.  1.
         22    1    1    2    0    0 -0.24846134613E+02  0.11779818905E+02 -0.60516488185E+00  0.27503831790E+02  0.00000000000E+00 0.  1.
         22    1    1    2    0    0  0.62925717184E+02 -0.40398690326E+02 -0.21051831617E+03  0.22340470341E+03  0.00000000000E+00 0.  1.
</event>
<event>
 6    1  0.4069520E-005  0.1194492E+03  0.7818608E-02  0.1261207E+00
          2   -1    0    0  502    0  0.00000000000E+00  0.00000000000E+00  0.72826864161E+03  0.72826864161E+03  0.00000000000E+00 0.  1.
          1   -1    0    0  501    0 -0.00000000000E+00 -0.00000000000E+00 -0.21872821857E+03  0.21872821857E+03  0.00000000000E+00 0.  1.
          2    1    1    2  501    0 -0.61447494750E+02 -0.45093361133E+02  0.16112855969E+03  0.17824594968E+03  0.00000000000E+00 0.  1.
          1    1    1    2  502    0  0.44139405767E+02  0.18402360037E+01 -0.20010035067E+03  0.20491906682E+03  0.00000000000E+00 0.  1.
         22    1    1    2    0    0 -0.43899710754E+01  0.83909441817E+02  0.37562305569E+03  0.38490615251E+03  0.00000000000E+00 0. -1.
         22    1    1    2    0    0  0.21698060059E+02 -0.40656316688E+02  0.17288915832E+03  0.17892569118E+03  0.00000000000E+00 0.  1.
</event>
<event>
 6    1  0.4069520E-005  0.9111770E+02  0.7818608E-02  0.1302311E+00
          2   -1    0    0  502    0  0.00000000000E+00  0.00000000000E+00  0.33731630628E+02  0.33731630628E+02  0.00000000000E+00 0. -1.
          1   -1    0    0  501    0 -0.00000000000E+00 -0.00000000000E+00 -0.12698926820E+04  0.12698926820E+04  0.00000000000E+00 0.  1.
          2    1    1    2  501    0  0.14828346405E+02 -0.67216422910E+02 -0.53017999625E+03  0.53462955005E+03  0.00000000000E+00 0. -1.
          1    1    1    2  502    0 -0.46754981253E+02 -0.54761169817E+00 -0.55862675531E+03  0.56058021718E+03  0.00000000000E+00 0.  1.
         22    1    1    2    0    0  0.18376375178E+02  0.86520855361E+02 -0.37367772353E+02  0.96020310287E+02  0.00000000000E+00 0. -1.
         22    1    1    2    0    0  0.13550259670E+02 -0.18756820753E+02 -0.10998652744E+03  0.11239423508E+03  0.00000000000E+00 0.  1.
</event>
<event>
 6    1  0.4069520E-005  0.1241313E+03  0.7818608E-02  0.1240050E+00
          2   -1    0    0  502    0  0.00000000000E+00  0.00000000000E+00  0.91944463535E+02  0.91944463535E+02  0.00000000000E+00 0.  1.
          1   -1    0    0  501    0 -0.00000000000E+00 -0.00000000000E+00 -0.11971011431E+04  0.11971011431E+04  0.00000000000E+00 0.  1.
          2    1    1    2  501    0  0.78447766546E+02 -0.41659695352E+02  0.44746109297E+01  0.88935956935E+02  0.00000000000E+00 0.  1.
          1    1    1    2  502    0  0.14263391745E+02  0.18307506959E+02 -0.10218100807E+04  0.10220736031E+04  0.00000000000E+00 0.  1.
         22    1    1    2    0    0  0.29126272242E+02  0.10577617186E+02 -0.86419666094E+01  0.32170006325E+02  0.00000000000E+00 0.  1.
         22    1    1    2    0    0 -0.12183743053E+03  0.12774571206E+02 -0.79179243166E+02  0.14586604025E+03  0.00000000000E+00 0.  1.
</event>
<event>
 6    1  0.4069520E-005  0.1465036E+03  0.7818608E-02  0.1245129E+00
          2   -1    0    0  502    0  0.00000000000E+00  0.00000000000E+00  0.53021064184E+03  0.53021064184E+03  0.00000000000E+00 0. -1.
          1   -1    0    0  501    0 -0.00000000000E+00 -0.00000000000E+00 -0.44073597231E+03  0.44073597231E+03  0.00000000000E+00 0.  1.
          2    1    1    2  501    0 -0.28565495458E+02  0.34022276804E+02  0.13202823638E+03  0.13930168000E+03  0.00000000000E+00 0. -1.
          1    1    1    2  502    0  0.55871654979E+02 -0.13188266232E+03 -0.40781089060E+03  0.43223188330E+03  0.00000000000E+00 0.  1.
         22    1    1    2    0    0 -0.74380105476E+02  0.55546188248E+02  0.16416939982E+03  0.18859843837E+03  0.00000000000E+00 0. -1.
         22    1    1    2    0    0  0.47073945955E+02  0.42314197271E+02  0.20108792393E+03  0.21081461247E+03  0.00000000000E+00 0.  1.
</event>
<event>
 6    1  0.4069520E-005  0.9208376E+02  0.7818608E-02  0.1302583E+00
          2   -1    0    0  502    0  0.00000000000E+00  0.00000000000E+00  0.23978072794E+02  0.23978072794E+02  0.00000000000E+00 0. -1.
          1   -1    0    0  501    0 -0.00000000000E+00 -0.00000000000E+00 -0.22401689273E+04  0.22401689273E+04  0.00000000000E+00 0.  1.
          2    1    1    2  501    0 -0.37837457021E+02 -0.35236002172E+02 -0.11299830794E+03  0.12426530731E+03  0.00000000000E+00 0. -1.
          1    1    1    2  502    0  0.39732450978E+02  0.12759896038E+01 -0.18943601533E+04  0.18947772129E+04  0.00000000000E+00 0.  1.
         22    1    1    2    0    0  0.24389296739E+02  0.71046278878E+02 -0.16789141604E+03  0.18392916876E+03  0.00000000000E+00 0.  1.
         22    1    1    2    0    0 -0.26284290696E+02 -0.37086266310E+02 -0.40940977228E+02  0.61175311218E+02  0.00000000000E+00 0. -1.
</event>
<event>
 6    1  0.4069520E-005  0.1055178E+03  0.7818608E-02  0.1272733E+00
          2   -1    0    0  502    0  0.00000000000E+00  0.00000000000E+00  0.22843346274E+03  0.22843346274E+03  0.00000000000E+00 0.  1.
          1   -1    0    0  501    0 -0.00000000000E+00 -0.00000000000E+00 -0.94096462825E+03  0.94096462825E+03  0.00000000000E+00 0.  1.
          2    1    1    2  501    0  0.52328717257E+02  0.44847635885E+02  0.26701753419E+02  0.73909327759E+02  0.00000000000E+00 0.  1.
          1    1    1    2  502    0 -0.33806095226E+01 -0.23765647972E+02 -0.88985709758E+03  0.89018081796E+03  0.00000000000E+00 0.  1.
         22    1    1    2    0    0  0.15630100539E+02  0.44298614441E+02  0.41870296988E+02  0.62926854793E+02  0.00000000000E+00 0. -1.
         22    1    1    2    0    0 -0.64578208273E+02 -0.65380602354E+02  0.10875388167E+03  0.14238109048E+03  0.00000000000E+00 0.  1.
</event>
<event>
 6    1  0.4069520E-005  0.1307670E+03  0.7818608E-02  0.1229474E+00
          2   -1    0    0  502    0  0.00000000000E+00  0.00000000000E+00  0.96395346435E+03  0.96395346435E+03  0.00000000000E+00 0.  1.
          1   -1    0    0  501    0 -0.00000000000E+00 -0.00000000000E+00 -0.31780028393E+02  0.31780028393E+02  0.00000000000E+00 0.  1.
          2    1    1    2  501    0  0.33772194408E+02 -0.70655003375E+02  0.28967094398E+03  0.30006990253E+03  0.00000000000E+00 0.  1.
          1    1    1    2  502    0 -0.11046589443E+03  0.16815762068E+02  0.24263173632E+03  0.26712477077E+03  0.00000000000E+00 0.  1.
         22    1    1    2    0    0  0.99739852654E+02  0.71062594727E+02  0.35190739570E+03  0.37260803228E+03  0.00000000000E+00 0.  1.
         22    1    1    2    0    0 -0.23046152633E+02 -0.17223353421E+02  0.47963359956E+02  0.55930787161E+02  0.00000000000E+00 0. -1.
</event>
<event>
 6    1  0.4069520E-005  0.9543978E+02  0.7818608E-02  0.1295916E+00
          2   -1    0    0  502    0  0.00000000000E+00  0.00000000000E+00  0.29908773782E+02  0.29908773782E+02  0.00000000000E+00 0. -1.
          1   -1    0    0  501    0 -0.00000000000E+00 -0.00000000000E+00 -0.10747524005E+04  0.10747524005E+04  0.00000000000E+00 0. -1.
          2    1    1    2  501    0  0.28682123458E+02  0.69326016051E+02 -0.28098669054E+03  0.29083033020E+03  0.00000000000E+00 0. -1.
          1    1    1    2  502    0 -0.40028531347E+02 -0.20778756262E+02 -0.60017326155E+03  0.60186542010E+03  0.00000000000E+00 0. -1.
         22    1    1    2    0    0  0.25405562571E+02 -0.80140322617E+02 -0.61710481817E+02  0.10428852998E+03  0.00000000000E+00 0. -1.
         22    1    1    2    0    0 -0.14059154682E+02  0.31593062828E+02 -0.10197319283E+03  0.10767689401E+03  0.00000000000E+00 0. -1.
</event>
<event>
 6    1  0.4069520E-005  0.8149226E+02  0.7818608E-02  0.1333058E+00
          2   -1    0    0  502    0  0.00000000000E+00  0.00000000000E+00  0.54188180478E+02  0.54188180478E+02  0.00000000000E+00 0. -1.
          1   -1    0    0  501    0 -0.00000000000E+00 -0.00000000000E+00 -0.11585531770E+04  0.11585531770E+04  0.00000000000E+00 0. -1.
          2    1    1    2  501    0 -0.31671642358E+02  0.54580116674E+02 -0.72150734590E+01  0.63514875036E+02  0.00000000000E+00 0. -1.
          1    1    1    2  502    0  0.54964955390E+02 -0.43133969825E+01 -0.93725826730E+03  0.93887848593E+03  0.00000000000E+00 0. -1.
         22    1    1    2    0    0 -0.83384115912E+01 -0.56485912310E+02 -0.17747979828E+03  0.18643837103E+03  0.00000000000E+00 0. -1.
         22    1    1    2    0    0 -0.14954901441E+02  0.62191926188E+01  0.17588142510E+02  0.23909625486E+02  0.00000000000E+00 0. -1.
</event>
<event>
 6    1  0.4069520E-005  0.5288422E+02  0.7818608E-02  0.1540384E+00
          2   -1    0    0  502    0  0.00000000000E+00  0.00000000000E+00  0.36550544524E+02  0.36550544524E+02  0.00000000000E+00 0.  1.
          1   -1    0    0  501    0 -0.00000000000E+00 -0.00000000000E+00 -0.67303852290E+03  0.67303852290E+03  0.00000000000E+00 0.  1.
          2    1    1    2  501    0 -0.11315504876E+02  0.19586641566E+02 -0.14453731396E+03  0.14629665856E+03  0.00000000000E+00 0.  1.
          1    1    1    2  502    0  0.22848041660E+02 -0.35967969048E+01 -0.41741176987E+03  0.41805209673E+03  0.00000000000E+00 0.  1.
         22    1    1    2    0    0 -0.18179854048E+02 -0.25108329017E+02 -0.10672377078E+03  0.11113459645E+03  0.00000000000E+00 0.  1.
         22    1    1    2    0    0  0.66473172645E+01  0.91184843560E+01  0.32184876236E+02  0.34105715681E+02  0.00000000000E+00 0.  1.
</event>
<event>
 6    1  0.4069520E-005  0.9655745E+02  0.7818608E-02  0.1342504E+00
          2   -1    0    0  502    0  0.00000000000E+00  0.00000000000E+00  0.13318267580E+03  0.13318267580E+03  0.00000000000E+00 0.  1.
          1   -1    0    0  501    0 -0.00000000000E+00 -0.00000000000E+00 -0.39642496922E+03  0.39642496922E+03  0.00000000000E+00 0. -1.
          2    1    1    2  501    0  0.58548458537E+02 -0.37623575372E+01  0.19382107032E+02  0.61787890434E+02  0.00000000000E+00 0.  1.
          1    1    1    2  502    0 -0.75945903431E+02 -0.24173626117E+02 -0.32521536885E+03  0.33483903683E+03  0.00000000000E+00 0. -1.
         22    1    1    2    0    0 -0.22642488882E+02  0.27968865422E+02 -0.32108093408E+02  0.48227268201E+02  0.00000000000E+00 0. -1.
         22    1    1    2    0    0  0.40039933776E+02 -0.32881767637E-01  0.74699061798E+02  0.84753449555E+02  0.00000000000E+00 0.  1.
</event>
<event>
 6    1  0.4069520E-005  0.2045051E+03  0.7818608E-02  0.1241804E+00
          2   -1    0    0  502    0  0.00000000000E+00  0.00000000000E+00  0.26014936277E+03  0.26014936277E+03  0.00000000000E+00 0.  1.
          1   -1    0    0  501    0 -0.00000000000E+00 -0.00000000000E+00 -0.10679169069E+03  0.10679169069E+03  0.00000000000E+00 0. -1.
          2    1    1    2  501    0 -0.61350985268E+02  0.15631419439E+02  0.13016422774E+03  0.14474464014E+03  0.00000000000E+00 0.  1.
          1    1    1    2  502    0 -0.63465988151E+01  0.46973826114E+02 -0.30714911146E+02  0.56482080548E+02  0.00000000000E+00 0. -1.
         22    1    1    2    0    0  0.19066367227E+01 -0.24813779167E+02  0.81319196548E+02  0.85042169701E+02  0.00000000000E+00 0. -1.
         22    1    1    2    0    0  0.65790947360E+02 -0.37791466385E+02 -0.27410841060E+02  0.80672163066E+02  0.00000000000E+00 0. -1.
</event>
<event>
 6    1  0.4069520E-005  0.1217161E+03  0.7818608E-02  0.1281095E+00
          2   -1    0    0  502    0  0.00000000000E+00  0.00000000000E+00  0.37084639990E+02  0.37084639990E+02  0.00000000000E+00 0. -1.
          1   -1    0    0  501    0 -0.00000000000E+00 -0.00000000000E+00 -0.14768353565E+04  0.14768353565E+04  0.00000000000E+00 0. -1.
          2    1    1    2  501    0 -0.13892559093E+00 -0.23616058265E+02 -0.16810820900E+03  0.16975896867E+03  0.00000000000E+00 0. -1.
          1    1    1    2  502    0  0.27144334438E+02  0.39498553311E+02 -0.11855887506E+04  0.11865570513E+04  0.00000000000E+00 0. -1.
         22    1    1    2    0    0  0.46474001211E+02 -0.27157186999E+02 -0.17828075968E+02  0.56702609172E+02  0.00000000000E+00 0.  1.
         22    1    1    2    0    0 -0.73479410057E+02  0.11274691952E+02 -0.68225680959E+02  0.10090136730E+03  0.00000000000E+00 0. -1.
</event>
<event>
 6    1  0.4069520E-005  0.1117264E+03  0.7818608E-02  0.1349857E+00
          2   -1    0    0  502    0  0.00000000000E+00  0.00000000000E+00  0.13523010719E+03  0.13523010719E+03  0.00000000000E+00 0. -1.
          1   -1    0    0  501    0 -0.00000000000E+00 -0.00000000000E+00 -0.25216495675E+03  0.25216495675E+03  0.00000000000E+00 0.  1.
          2    1    1    2  501    0 -0.36208751905E+02  0.68985369345E+02 -0.65814203988E+02  0.10198805981E+03  0.00000000000E+00 0. -1.
          1    1    1    2  502    0  0.23250816901E+02 -0.11475357165E+02 -0.12400375561E+03  0.12668549923E+03  0.00000000000E+00 0.  1.
         22    1    1    2    0    0  0.48350717226E+01 -0.38716179438E+02 -0.32862298437E+02  0.51012264480E+02  0.00000000000E+00 0.  1.
         22    1    1    2    0    0  0.81228632817E+01 -0.18793832742E+02  0.10574540848E+03  0.10770924041E+03  0.00000000000E+00 0. -1.
</event>
<event>
 6    1  0.4069520E-005  0.1552248E+03  0.7818608E-02  0.1255708E+00
          2   -1    0    0  502    0  0.00000000000E+00  0.00000000000E+00  0.56309980903E+02  0.56309980903E+02  0.00000000000E+00 0.  1.
          1   -1    0    0  501    0 -0.00000000000E+00 -0.00000000000E+00 -0.10610829584E+04  0.10610829584E+04  0.00000000000E+00 0.  1.
          2    1    1    2  501    0  0.86265374922E+01  0.30079440287E+02 -0.11215753391E+03  0.11644098201E+03  0.00000000000E+00 0.  1.
          1    1    1    2  502    0  0.13004167623E+02 -0.16537703810E+02 -0.87575297930E+03  0.87600564198E+03  0.00000000000E+00 0.  1.
         22    1    1    2    0    0 -0.46215691438E+02  0.13303171247E+02  0.36483003755E+02  0.60364509965E+02  0.00000000000E+00 0.  1.
         22    1    1    2    0    0  0.24584986322E+02 -0.26844907724E+02 -0.53345468071E+02  0.64581805385E+02  0.00000000000E+00 0. -1.
</event>
<event>
 6    1  0.4069520E-005  0.1498494E+03  0.7818608E-02  0.1285998E+00
          2   -1    0    0  502    0  0.00000000000E+00  0.00000000000E+00  0.25259564049E+03  0.25259564049E+03  0.00000000000E+00 0. -1.
          1   -1    0    0  501    0 -0.00000000000E+00 -0.00000000000E+00 -0.74461721434E+03  0.74461721434E+03  0.00000000000E+00 0. -1.
          2    1    1    2  501    0 -0.25391477230E+02  0.12120420430E+02  0.32889397347E+02  0.43282146033E+02  0.00000000000E+00 0. -1.
          1    1    1    2  502    0 -0.10203194739E+03  0.14246732468E+02 -0.69708080872E+03  0.70465249702E+03  0.00000000000E+00 0. -1.
         22    1    1    2    0    0  0.10094508723E+03 -0.23114595434E+02  0.19055689093E+03  0.21687813130E+03  0.00000000000E+00 0. -1.
         22    1    1    2    0    0  0.26478337397E+02 -0.32525574644E+01 -0.18387053408E+02  0.32400080469E+02  0.00000000000E+00 0. -1.
</event>
<event>
 6    1  0.4069520E-005  0.1382860E+03  0.7818608E-02  0.1278187E+00
          2   -1    0    0  502    0  0.00000000000E+00  0.00000000000E+00  0.45561557640E+03  0.45561557640E+03  0.00000000000E+00 0.  1.
          1   -1    0    0  501    0 -0.00000000000E+00 -0.00000000000E+00 -0.78877915453E+03  0.78877915453E+03  0.00000000000E+00 0. -1.
          2    1    1    2  501    0 -0.48342817538E+02 -0.55362669727E+02  0.13819643520E+03  0.15652574200E+03  0.00000000000E+00 0.  1.
          1    1    1    2  502    0  0.24189119953E+02 -0.11266323431E+02 -0.76264240096E+03  0.76310908480E+03  0.00000000000E+00 0. -1.
         22    1    1    2    0    0  0.43091229154E+02  0.21287357669E+02  0.26443310060E+03  0.26876545596E+03  0.00000000000E+00 0.  1.
         22    1    1    2    0    0 -0.18937531570E+02  0.45341635489E+02  0.26849287031E+02  0.55994448161E+02  0.00000000000E+00 0.  1.
</event>
<event>
 6    1  0.4069520E-005  0.1280740E+03  0.7818608E-02  0.1317649E+00
          2   -1    0    0  502    0  0.00000000000E+00  0.00000000000E+00  0.43379774528E+03  0.43379774528E+03  0.00000000000E+00 0. -1.
          1   -1    0    0  501    0 -0.00000000000E+00 -0.00000000000E+00 -0.46619305263E+03  0.46619305263E+03  0.00000000000E+00 0. -1.
          2    1    1    2  501    0  0.42070716629E+02 -0.73795833000E+02 -0.35840028097E+03  0.36832937918E+03  0.00000000000E+00 0. -1.
          1    1    1    2  502    0 -0.90183250813E+02  0.90136957379E+02  0.36788897658E+03  0.38935843243E+03  0.00000000000E+00 0. -1.
         22    1    1    2    0    0  0.26819687479E+02 -0.27147963046E+02 -0.84912087781E+02  0.93093341252E+02  0.00000000000E+00 0.  1.
         22    1    1    2    0    0  0.21292846706E+02  0.10806838667E+02  0.43028084817E+02  0.49209645049E+02  0.00000000000E+00 0. -1.
</event>
<event>
 6    1  0.4069520E-005  0.1077434E+03  0.7818608E-02  0.1294152E+00
          2   -1    0    0  502    0  0.00000000000E+00  0.00000000000E+00  0.10646152794E+04  0.10646152794E+04  0.00000000000E+00 0. -1.
          1   -1    0    0  501    0 -0.00000000000E+00 -0.00000000000E+00 -0.12589478704E+03  0.12589478704E+03  0.00000000000E+00 0. -1.
          2    1    1    2  501    0  0.46601100476E+02 -0.36511934418E+02  0.43212216080E+03  0.43615862456E+03  0.00000000000E+00 0. -1.
          1    1    1    2  502    0 -0.46684762675E+02  0.43631663465E+02 -0.10843771972E+03  0.12586472175E+03  0.00000000000E+00 0. -1.
         22    1    1    2    0    0  0.34228620451E+02  0.51221061677E+02  0.27940487868E+03  0.28611585389E+03  0.00000000000E+00 0. -1.
         22    1    1    2    0    0 -0.34144958252E+02 -0.58340790723E+02  0.33563117256E+03  0.34237086621E+03  0.00000000000E+00 0. -1.
</event>
<event>
 6    1  0.4069520E-005  0.3142518E+03  0.7818608E-02  0.1191181E+00
          2   -1    0    0  502    0  0.00000000000E+00  0.00000000000E+00  0.30352678125E+03  0.30352678125E+03  0.00000000000E+00 0. -1.
          1   -1    0    0  501    0 -0.00000000000E+00 -0.00000000000E+00 -0.39390038821E+03  0.39390038821E+03  0.00000000000E+00 0. -1.
          2    1    1    2  501    0  0.63401509448E+02 -0.23255756681E+03 -0.23064354402E+03  0.33361537386E+03  0.00000000000E+00 0. -1.
          1    1    1    2  502    0 -0.84983959575E+02  0.18703938314E+03  0.86724660001E+02  0.22299589880E+03  0.00000000000E+00 0. -1.
         22    1    1    2    0    0  0.12182296404E+02 -0.15848814359E+02  0.73054417281E+02  0.75739957397E+02  0.00000000000E+00 0.  1.
         22    1    1    2    0    0  0.94001537225E+01  0.61366998028E+02 -0.19509140225E+02  0.65075939404E+02  0.00000000000E+00 0. -1.
</event>
<event>
 6    1  0.4069520E-005  0.1244129E+03  0.7818608E-02  0.1240752E+00
          2   -1    0    0  502    0  0.00000000000E+00  0.00000000000E+00  0.36843490450E+03  0.36843490450E+03  0.00000000000E+00 0. -1.
          1   -1    0    0  501    0 -0.00000000000E+00 -0.00000000000E+00 -0.53499197946E+03  0.53499197946E+03  0.00000000000E+00 0. -1.
          2    1    1    2  501    0 -0.68830042381E+02  0.32019616522E+02  0.58073713418E+02  0.95579217231E+02  0.00000000000E+00 0. -1.
          1    1    1    2  502    0  0.18826028584E+02  0.44760473917E+02 -0.49337529584E+03  0.49575911684E+03  0.00000000000E+00 0. -1.
         22    1    1    2    0    0 -0.92596708879E+01  0.32803852681E+02  0.57603517351E+02  0.66932798140E+02  0.00000000000E+00 0. -1.
         22    1    1    2    0    0  0.59263684685E+02 -0.10958394312E+03  0.21114099011E+03  0.24515575175E+03  0.00000000000E+00 0. -1.
</event>
<event>
 6    1  0.4069520E-005  0.5986184E+03  0.7818608E-02  0.1082433E+00
          2   -1    0    0  502    0  0.00000000000E+00  0.00000000000E+00  0.10789388433E+04  0.10789388433E+04  0.00000000000E+00 0.  1.
          1   -1    0    0  501    0 -0.00000000000E+00 -0.00000000000E+00 -0.44073797563E+03  0.44073797563E+03  0.00000000000E+00 0. -1.
          2    1    1    2  501    0  0.82580092516E+02  0.42790537749E+03  0.26016300028E+03  0.50755026399E+03  0.00000000000E+00 0.  1.
          1    1    1    2  502    0 -0.52035807344E+00 -0.51427717127E+03 -0.81032092086E+02  0.52062220430E+03  0.00000000000E+00 0. -1.
         22    1    1    2    0    0 -0.56907688039E+02  0.11837610991E+03  0.30358975848E+03  0.33078411360E+03  0.00000000000E+00 0.  1.
         22    1    1    2    0    0 -0.25152046404E+02 -0.32004316127E+02  0.15548020100E+03  0.16072023703E+03  0.00000000000E+00 0.  1.
</event>
<event>
 6    1  0.4069520E-005  0.2892640E+03  0.7818608E-02  0.1214615E+00
          2   -1    0    0  502    0  0.00000000000E+00  0.00000000000E+00  0.13377452468E+03  0.13377452468E+03  0.00000000000E+00 0. -1.
          1   -1    0    0  501    0 -0.00000000000E+00 -0.00000000000E+00 -0.62563135440E+03  0.62563135440E+03  0.00000000000E+00 0.  1.
          2    1    1    2  501    0 -0.12876397817E+03 -0.68012660601E+02 -0.29376334074E+03  0.32787617242E+03  0.00000000000E+00 0. -1.
          1    1    1    2  502    0  0.25913483774E+02  0.45004264652E+02 -0.25470439209E+03  0.25994464763E+03  0.00000000000E+00 0.  1.
         22    1    1    2    0    0  0.67971121324E+01  0.13868627577E+02  0.72211548505E+02  0.73844751348E+02  0.00000000000E+00 0. -1.
         22    1    1    2    0    0  0.96053382268E+02  0.91397683719E+01 -0.15600645388E+02  0.97740307691E+02  0.00000000000E+00 0.  1.
</event>
<event>
 6    1  0.4069520E-005  0.8505380E+02  0.7818608E-02  0.1347102E+00
          2   -1    0    0  502    0  0.00000000000E+00  0.00000000000E+00  0.12145697122E+03  0.12145697122E+03  0.00000000000E+00 0.  1.
          1   -1    0    0  501    0 -0.00000000000E+00 -0.00000000000E+00 -0.10901994955E+04  0.10901994955E+04  0.00000000000E+00 0.  1.
          2    1    1    2  501    0  0.34721447669E+02  0.33824756351E+01 -0.65079889883E+02  0.73840450546E+02  0.00000000000E+00 0.  1.
          1    1    1    2  502    0 -0.67818932136E+02  0.57446740239E+02 -0.97623282184E+03  0.98027040043E+03  0.00000000000E+00 0.  1.
         22    1    1    2    0    0  0.24736499948E+02 -0.41888181567E+02  0.10690411347E+03  0.11745213349E+03  0.00000000000E+00 0.  1.
         22    1    1    2    0    0  0.83609845188E+01 -0.18941034308E+02 -0.34333926054E+02  0.40093482276E+02  0.00000000000E+00 0.  1.
</event>
<event>
 6    1  0.4069520E-005  0.9041722E+02  0.7818608E-02  0.1361177E+00
          2   -1    0    0  502    0  0.00000000000E+00  0.00000000000E+00  0.18515135971E+03  0.18515135971E+03  0.00000000000E+00 0. -1.
          1   -1    0    0  501    0 -0.00000000000E+00 -0.00000000000E+00 -0.94739268729E+02  0.94739268729E+02  0.00000000000E+00 0. -1.
          2    1    1    2  501    0  0.52606236696E+02 -0.66450952111E+01 -0.36536282150E+02  0.64393115649E+02  0.00000000000E+00 0. -1.
          1    1    1    2  502    0 -0.44978287673E+02 -0.17446545392E+01  0.59052407361E+02  0.74251444408E+02  0.00000000000E+00 0. -1.
         22    1    1    2    0    0 -0.35541820878E+02 -0.70422981609E+01 -0.24341185092E+02  0.43649837186E+02  0.00000000000E+00 0. -1.
         22    1    1    2    0    0  0.27913871855E+02  0.15432047911E+02  0.92237150863E+02  0.97596231198E+02  0.00000000000E+00 0. -1.
</event>
<event>
 6    1  0.4069520E-005  0.7540795E+02  0.7818608E-02  0.1344332E+00
          2   -1    0    0  502    0  0.00000000000E+00  0.00000000000E+00  0.23371763811E+03  0.23371763811E+03  0.00000000000E+00 0.  1.
          1   -1    0    0  501    0 -0.00000000000E+00 -0.00000000000E+00 -0.72828244995E+03  0.72828244995E+03  0.00000000000E+00 0. -1.
          2    1    1    2  501    0  0.30539129021E+02 -0.37763401420E+02  0.18450592182E+02  0.51953221652E+02  0.00000000000E+00 0.  1.
          1    1    1    2  502    0  0.53315506340E+01  0.23207801186E+02 -0.68912934746E+03  0.68954063332E+03  0.00000000000E+00 0. -1.
         22    1    1    2    0    0 -0.46677717755E+02  0.52885559256E+02  0.16455798193E+03  0.17903916088E+03  0.00000000000E+00 0.  1.
         22    1    1    2    0    0  0.10807038101E+02 -0.38329959022E+02  0.11555961514E+02  0.41467072210E+02  0.00000000000E+00 0. -1.
</event>
<event>
 6    1  0.4069520E-005  0.1380964E+03  0.7818608E-02  0.1277498E+00
          2   -1    0    0  502    0  0.00000000000E+00  0.00000000000E+00  0.46331177902E+03  0.46331177902E+03  0.00000000000E+00 0.  1.
          1   -1    0    0  501    0 -0.00000000000E+00 -0.00000000000E+00 -0.45065223663E+03  0.45065223663E+03  0.00000000000E+00 0.  1.
          2    1    1    2  501    0  0.63707499626E+01 -0.23758146833E+02 -0.64001006064E+01  0.25416476620E+02  0.00000000000E+00 0.  1.
          1    1    1    2  502    0 -0.58106148998E+02  0.38429678796E+02 -0.42149026705E+03  0.42720862583E+03  0.00000000000E+00 0.  1.
         22    1    1    2    0    0 -0.34297669129E+02  0.20683518818E+02  0.18764350006E+03  0.19187032385E+03  0.00000000000E+00 0.  1.
         22    1    1    2    0    0  0.86033068165E+02 -0.35355050782E+02  0.25290640999E+03  0.26946858935E+03  0.00000000000E+00 0.  1.
</event>
<event>
 6    1  0.4069520E-005  0.2049664E+03  0.7818608E-02  0.1200185E+00
          2   -1    0    0  502    0  0.00000000000E+00  0.00000000000E+00  0.44848233838E+02  0.44848233838E+02  0.00000000000E+00 0.  1.
          1   -1    0    0  501    0 -0.00000000000E+00 -0.00000000000E+00 -0.99007513618E+03  0.99007513618E+03  0.00000000000E+00 0.  1.
          2    1    1    2  501    0 -0.26147712540E+02  0.67853123420E+01 -0.39276079998E+03  0.39368869598E+03  0.00000000000E+00 0.  1.
          1    1    1    2  502    0  0.27628649440E+02  0.22793866935E+01 -0.50384151997E+03  0.50460362178E+03  0.00000000000E+00 0.  1.
         22    1    1    2    0    0 -0.31516243889E+02  0.51322256127E+02 -0.21885638909E+02  0.64079862619E+02  0.00000000000E+00 0.  1.
         22    1    1    2    0    0  0.30035306989E+02 -0.60386955162E+02 -0.26738943481E+02  0.72551189640E+02  0.00000000000E+00 0. -1.
</event>
<event>
 6    1  0.4069520E-005  0.9160798E+02  0.7818608E-02  0.1310482E+00
          2   -1    0    0  502    0  0.00000000000E+00  0.00000000000E+00  0.35378667684E+03  0.35378667684E+03  0.00000000000E+00 0. -1.
          1   -1    0    0  501    0 -0.00000000000E+00 -0.00000000000E+00 -0.21905755314E+03  0.21905755314E+03  0.00000000000E+00 0. -1.
          2    1    1    2  501    0  0.18799236439E+02  0.36685419146E+02  0.10073875076E+03  0.10884634662E+03  0.00000000000E+00 0. -1.
          1    1    1    2  502    0 -0.66865187001E+01 -0.28540303050E+02 -0.19747886316E+03  0.19964258019E+03  0.00000000000E+00 0. -1.
         22    1    1    2    0    0  0.25022671656E+02 -0.56264249061E+02  0.78622772200E+02  0.99866611676E+02  0.00000000000E+00 0. -1.
         22    1    1    2    0    0 -0.37135389395E+02  0.48119132965E+02  0.15284646390E+03  0.16448869150E+03  0.00000000000E+00 0. -1.
</event>
<event>
 6    1  0.4069520E-005  0.2571688E+03  0.7818608E-02  0.1210843E+00
          2   -1    0    0  502    0  0.00000000000E+00  0.00000000000E+00  0.20249959686E+03  0.20249959686E+03  0.00000000000E+00 0.  1.
          1   -1    0    0  501    0 -0.00000000000E+00 -0.00000000000E+00 -0.62985285045E+03  0.62985285045E+03  0.00000000000E+00 0. -1.
          2    1    1    2  501    0  0.18303235379E+02 -0.99926781365E+02 -0.80109121708E+02  0.12937480991E+03  0.00000000000E+00 0.  1.
          1    1    1    2  502    0 -0.93133841229E+02  0.20869464542E+02 -0.48154916459E+03  0.49091653552E+03  0.00000000000E+00 0. -1.
         22    1    1    2    0    0  0.97836160047E+02  0.72904931441E+02  0.63889440462E+02  0.13772764372E+03  0.00000000000E+00 0.  1.
         22    1    1    2    0    0 -0.23005554197E+02  0.61523853815E+01  0.70415592243E+02  0.74333458151E+02  0.00000000000E+00 0.  1.
</event>
<event>
 6    1  0.1164928E-004  0.5957348E+03  0.7818608E-02  0.1105865E+00
          2   -1    0    0  502    0  0.00000000000E+00  0.00000000000E+00  0.18985406500E+03  0.18985406500E+03  0.00000000000E+00 0.  1.
          1   -1    0    0  501    0 -0.00000000000E+00 -0.00000000000E+00 -0.19446049092E+04  0.19446049092E+04  0.00000000000E+00 0.  1.
          2    1    1    2  501    0 -0.18315084245E+02 -0.39428449453E+02 -0.47390402701E+03  0.47589397112E+03  0.00000000000E+00 0.  1.
          1    1    1    2  502    0  0.93463269958E+02  0.42954214652E+02 -0.14382526548E+04  0.14419261931E+04  0.00000000000E+00 0.  1.
         22    1    1    2    0    0 -0.14024827433E+02 -0.17381204867E+02 -0.19067779553E+02  0.29366346117E+02  0.00000000000E+00 0.  1.
         22    1    1    2    0    0 -0.61123358280E+02  0.13855439668E+02  0.17647361719E+03  0.18727246381E+03  0.00000000000E+00 0.  1.
</event>
<event>
 6    1  0.5616364E-005  0.7509306E+02  0.7818608E-02  0.1408603E+00
          2   -1    0    0  502    0  0.00000000000E+00  0.00000000000E+00  0.10188899928E+03  0.10188899928E+03  0.00000000000E+00 0. -1.
          1   -1    0    0  501    0 -0.00000000000E+00 -0.00000000000E+00 -0.12535400122E+04  0.12535400122E+04  0.00000000000E+00 0. -1.
          2    1    1    2  501    0 -0.61604688707E+02  0.38454609578E+02 -0.14108887741E+03  0.15868196494E+03  0.00000000000E+00 0. -1.
          1    1    1    2  502    0  0.66592522836E+02 -0.26222216964E+02 -0.10606687901E+04  0.10630806418E+04  0.00000000000E+00 0. -1.
         22    1    1    2    0    0 -0.75776571227E+01  0.13464322176E+02 -0.38440700777E+02  0.41429413891E+02  0.00000000000E+00 0. -1.
         22    1    1    2    0    0  0.25898229937E+01 -0.25696714790E+02  0.88547355362E+02  0.92236990822E+02  0.00000000000E+00 0. -1.
</event>
<event>
 6    1  0.4069520E-005  0.9071428E+02  0.7818608E-02  0.1367954E+00
          2   -1    0    0  502    0  0.00000000000E+00  0.00000000000E+00  0.42446116008E+02  0.42446116008E+02  0.00000000000E+00 0. -1.
          1   -1    0    0  501    0 -0.00000000000E+00 -0.00000000000E+00 -0.63661992335E+03  0.63661992335E+03  0.00000000000E+00 0. -1.
          2    1    1    2  501    0  0.44537422578E+02  0.32576910627E+01 -0.66123706391E+02  0.79790595360E+02  0.00000000000E+00 0. -1.
          1    1    1    2  502    0 -0.77814901754E+02  0.31843427612E+02 -0.41428349402E+03  0.42272919965E+03  0.00000000000E+00 0. -1.
         22    1    1    2    0    0 -0.16719781276E+02 -0.22715964092E+02  0.19086962326E+02  0.34056985207E+02  0.00000000000E+00 0.  1.
         22    1    1    2    0    0  0.49997260453E+02 -0.12385154583E+02 -0.13285356926E+03  0.14248925914E+03  0.00000000000E+00 0. -1.
</event>
<event>
 6    1  0.4069520E-005  0.4413394E+02  0.7818608E-02  0.1582057E+00
          2   -1    0    0  502    0  0.00000000000E+00  0.00000000000E+00  0.77082749497E+02  0.77082749497E+02  0.00000000000E+00 0.  1.
          1   -1    0    0  501    0 -0.00000000000E+00 -0.00000000000E+00 -0.12781081688E+03  0.12781081688E+03  0.00000000000E+00 0.  1.
          2    1    1    2  501    0 -0.19349258090E+02  0.75096524474E+01 -0.49304415333E+02  0.53494990792E+02  0.00000000000E+00 0.  1.
          1    1    1    2  502    0  0.13876283323E+02 -0.20219906211E+02 -0.12646994000E+02  0.27592431993E+02  0.00000000000E+00 0.  1.
         22    1    1    2    0    0 -0.96618117074E+01 -0.61552182958E+01  0.64387663507E+02  0.65398841959E+02  0.00000000000E+00 0.  1.
         22    1    1    2    0    0  0.15134786474E+02  0.18865472059E+02 -0.53164321560E+02  0.58407301637E+02  0.00000000000E+00 0.  1.
</event>
<event>
 6    1  0.4069520E-005  0.7603918E+02  0.7818608E-02  0.1344097E+00
          2   -1    0    0  502    0  0.00000000000E+00  0.00000000000E+00  0.14912093752E+02  0.14912093752E+02  0.00000000000E+00 0. -1.
          1   -1    0    0  501    0 -0.00000000000E+00 -0.00000000000E+00 -0.54890206435E+03  0.54890206435E+03  0.00000000000E+00 0.  1.
          2    1    1    2  501    0  0.15431841369E+01  0.21518016260E+02 -0.62847820421E+02  0.66447384996E+02  0.00000000000E+00 0. -1.
          1    1    1    2  502    0 -0.70046967423E+01 -0.19022465120E+02 -0.15511128500E+03  0.15643027421E+03  0.00000000000E+00 0.  1.
         22    1    1    2    0    0  0.34988737463E+02 -0.54416630153E+02 -0.20350175751E+03  0.21353769385E+03  0.00000000000E+00 0. -1.
         22    1    1    2    0    0 -0.29527224858E+02  0.51921079013E+02 -0.11252910767E+03  0.12739880504E+03  0.00000000000E+00 0.  1.
</event>
<event>
 6    1  0.4069520E-005  0.8623393E+02  0.7818608E-02  0.1316644E+00
          2   -1    0    0  502    0  0.00000000000E+00  0.00000000000E+00  0.11755939112E+03  0.11755939112E+03  0.00000000000E+00 0.  1.
          1   -1    0    0  501    0 -0.00000000000E+00 -0.00000000000E+00 -0.18905103963E+03  0.18905103963E+03  0.00000000000E+00 0. -1.
          2    1    1    2  501    0  0.13820943275E+02  0.23936157975E+02 -0.88395920132E+01  0.29018899334E+02  0.00000000000E+00 0.  1.
          1    1    1    2  502    0  0.23567026237E+02  0.46601692310E+02 -0.11293652890E+03  0.12442580927E+03  0.00000000000E+00 0. -1.
         22    1    1    2    0    0 -0.18031005529E+02 -0.96725834071E+02  0.64483131646E+02  0.11763961239E+03  0.00000000000E+00 0.  1.
         22    1    1    2    0    0 -0.19356963983E+02  0.26187983787E+02 -0.14198659238E+02  0.35526109745E+02  0.00000000000E+00 0.  1.
</event>
<event>
 6    1  0.4069520E-005  0.7914820E+02  0.7818608E-02  0.1341912E+00
          2   -1    0    0  502    0  0.00000000000E+00  0.00000000000E+00  0.97663091452E+02  0.97663091452E+02  0.00000000000E+00 0.  1.
          1   -1    0    0  501    0 -0.00000000000E+00 -0.00000000000E+00 -0.25280500652E+03  0.25280500652E+03  0.00000000000E+00 0.  1.
          2    1    1    2  501    0 -0.20647495888E+02  0.38837970324E+02 -0.62231639437E+02  0.76206849904E+02  0.00000000000E+00 0.  1.
          1    1    1    2  502    0  0.10417193437E+02 -0.20900742568E+02 -0.13802348996E+03  0.13998515186E+03  0.00000000000E+00 0.  1.
         22    1    1    2    0    0  0.92664459989E+01 -0.62659338540E+02  0.59884617964E+02  0.87167810552E+02  0.00000000000E+00 0.  1.
         22    1    1    2    0    0  0.96385645149E+00  0.44722110785E+02 -0.14771403633E+02  0.47108285658E+02  0.00000000000E+00 0.  1.
</event>
<event>
 6    1  0.4069520E-005  0.1444116E+03  0.7818608E-02  0.1255049E+00
          2   -1    0    0  502    0  0.00000000000E+00  0.00000000000E+00  0.14590441473E+03  0.14590441473E+03  0.00000000000E+00 0. -1.
          1   -1    0    0  501    0 -0.00000000000E+00 -0.00000000000E+00 -0.19562136792E+04  0.19562136792E+04  0.00000000000E+00 0.  1.
          2    1    1    2  501    0  0.58157504950E+02  0.63000110094E+00  0.11962933635E+02  0.59378481494E+02  0.00000000000E+00 0. -1.
          1    1    1    2  502    0 -0.13740634624E+03  0.28654860960E+02 -0.18786143431E+04  0.18838506988E+04  0.00000000000E+00 0.  1.
         22    1    1    2    0    0 -0.56291700597E+01 -0.53914430558E+02  0.24230618388E+00  0.54208044516E+02  0.00000000000E+00 0. -1.
         22    1    1    2    0    0  0.84878011346E+02  0.24629568497E+02  0.56099838819E+02  0.10468086917E+03  0.00000000000E+00 0. -1.
</event>
<event>
 6    1  0.4069520E-005  0.4303615E+03  0.7818608E-02  0.1162332E+00
          2   -1    0    0  502    0  0.00000000000E+00  0.00000000000E+00  0.50972385121E+02  0.50972385121E+02  0.00000000000E+00 0. -1.
          1   -1    0    0  501    0 -0.00000000000E+00 -0.00000000000E+00 -0.17449260678E+04  0.17449260678E+04  0.00000000000E+00 0. -1.
          2    1    1    2  501    0 -0.14897218240E+03 -0.12258174960E+02 -0.58069242079E+03  0.59962209895E+03  0.00000000000E+00 0. -1.
          1    1    1    2  502    0 -0.89507143682E+02  0.24805066472E+02 -0.68039373630E+03  0.68670405306E+03  0.00000000000E+00 0. -1.
         22    1    1    2    0    0 -0.14620182132E+02  0.30846078501E+01 -0.18646881666E+02  0.23894993765E+02  0.00000000000E+00 0. -1.
         22    1    1    2    0    0  0.25309950822E+03 -0.15631499362E+02 -0.41422064395E+03  0.48567730717E+03  0.00000000000E+00 0. -1.
</event>
<event>
 6    1  0.4069520E-005  0.1021710E+03  0.7818608E-02  0.1372162E+00
          2   -1    0    0  502    0  0.00000000000E+00  0.00000000000E+00  0.76472659435E+02  0.76472659435E+02  0.00000000000E+00 0. -1.
          1   -1    0    0  501    0 -0.00000000000E+00 -0.00000000000E+00 -0.21912297169E+03  0.21912297169E+03  0.00000000000E+00 0. -1.
          2    1    1    2  501    0 -0.25621896447E+02  0.99547218021E+01 -0.46401809460E+02  0.53932420536E+02  0.00000000000E+00 0. -1.
          1    1    1    2  502    0 -0.15304111515E+02  0.31940601775E+02 -0.10106927888E+03  0.10709536406E+03  0.00000000000E+00 0. -1.
         22    1    1    2    0    0  0.46519357425E+02 -0.59438207565E+02 -0.40494261194E+02  0.85654750735E+02  0.00000000000E+00 0. -1.
         22    1    1    2    0    0 -0.55933494632E+01  0.17542883988E+02  0.45315037275E+02  0.48913095793E+02  0.00000000000E+00 0. -1.
</event>
<event>
 6    1  0.4069520E-005  0.2824262E+03  0.7818608E-02  0.1151075E+00
          2   -1    0    0  502    0  0.00000000000E+00  0.00000000000E+00  0.13683579808E+03  0.13683579808E+03  0.00000000000E+00 0.  1.
          1   -1    0    0  501    0 -0.00000000000E+00 -0.00000000000E+00 -0.90553145823E+03  0.90553145823E+03  0.00000000000E+00 0. -1.
          2    1    1    2  501    0 -0.15964705992E+03 -0.71379842173E+02 -0.17697124557E+03  0.24879929134E+03  0.00000000000E+00 0.  1.
          1    1    1    2  502    0  0.10066042262E+03  0.12702122889E+03 -0.61960364415E+03  0.64044952113E+03  0.00000000000E+00 0. -1.
         22    1    1    2    0    0 -0.72383395380E+01 -0.36947300904E+02  0.64861959686E+02  0.74997136063E+02  0.00000000000E+00 0.  1.
         22    1    1    2    0    0  0.66224976843E+02 -0.18694085817E+02 -0.36982730110E+02  0.78121307777E+02  0.00000000000E+00 0. -1.
</event>
<event>
 6    1  0.4069520E-005  0.8350713E+02  0.7818608E-02  0.1322396E+00
          2   -1    0    0  502    0  0.00000000000E+00  0.00000000000E+00  0.49463613247E+03  0.49463613247E+03  0.00000000000E+00 0.  1.
          1   -1    0    0  501    0 -0.00000000000E+00 -0.00000000000E+00 -0.60656431407E+02  0.60656431407E+02  0.00000000000E+00 0.  1.
          2    1    1    2  501    0 -0.33369403261E+02  0.14016764235E+02  0.14240432299E+03  0.14693188204E+03  0.00000000000E+00 0.  1.
          1    1    1    2  502    0  0.19605371556E+02  0.18537984507E+02 -0.42832379956E+02  0.50622526963E+02  0.00000000000E+00 0.  1.
         22    1    1    2    0    0  0.67542461312E+02 -0.23976499685E+02  0.16811476092E+03  0.18275510788E+03  0.00000000000E+00 0.  1.
         22    1    1    2    0    0 -0.53778429607E+02 -0.85782490571E+01  0.16629299711E+03  0.17498304699E+03  0.00000000000E+00 0.  1.
</event>
<event>
 6    1  0.4069520E-005  0.1279475E+03  0.7818608E-02  0.1255057E+00
          2   -1    0    0  502    0  0.00000000000E+00  0.00000000000E+00  0.10707989861E+03  0.10707989861E+03  0.00000000000E+00 0.  1.
          1   -1    0    0  501    0 -0.00000000000E+00 -0.00000000000E+00 -0.91784587220E+03  0.91784587220E+03  0.00000000000E+00 0. -1.
          2    1    1    2  501    0  0.35882547252E+02  0.45995827947E+02 -0.30177969795E+02  0.65680158699E+02  0.00000000000E+00 0.  1.
          1    1    1    2  502    0  0.19704479122E+02 -0.11064400053E+03 -0.79922414562E+03  0.80708710577E+03  0.00000000000E+00 0. -1.
         22    1    1    2    0    0  0.22340062517E+02  0.64055618720E+02  0.28547594802E+02  0.73601398436E+02  0.00000000000E+00 0.  1.
         22    1    1    2    0    0 -0.77927088891E+02  0.59255386784E+00 -0.99114529836E+01  0.78557107911E+02  0.00000000000E+00 0. -1.
</event>
<event>
 6    1  0.4069520E-005  0.1119478E+03  0.7818608E-02  0.1334014E+00
          2   -1    0    0  502    0  0.00000000000E+00  0.00000000000E+00  0.98384294078E+02  0.98384294078E+02  0.00000000000E+00 0.  1.
          1   -1    0    0  501    0 -0.00000000000E+00 -0.00000000000E+00 -0.22733130191E+03  0.22733130191E+03  0.00000000000E+00 0.  1.
          2    1    1    2  501    0  0.71884680469E+02 -0.25384057550E+01 -0.98551274105E+02  0.12200903416E+03  0.00000000000E+00 0.  1.
          1    1    1    2  502    0 -0.39921263314E+02  0.32270608794E+02 -0.52062353581E+02  0.73113528960E+02  0.00000000000E+00 0.  1.
         22    1    1    2    0    0 -0.11837482287E+02 -0.47368746027E+02 -0.40162454796E+02  0.63221411422E+02  0.00000000000E+00 0.  1.
         22    1    1    2    0    0 -0.20125934868E+02  0.17636542988E+02  0.61829074653E+02  0.67371621439E+02  0.00000000000E+00 0.  1.
</event>
<event>
 6    1  0.4069520E-005  0.7103569E+02  0.7818608E-02  0.1424705E+00
          2   -1    0    0  502    0  0.00000000000E+00  0.00000000000E+00  0.54989306539E+02  0.54989306539E+02  0.00000000000E+00 0.  1.
          1   -1    0    0  501    0 -0.00000000000E+00 -0.00000000000E+00 -0.68862708909E+03  0.68862708909E+03  0.00000000000E+00 0.  1.
          2    1    1    2  501    0 -0.52024368049E+02 -0.78178092636E+01 -0.11294547193E+03  0.12459667990E+03  0.00000000000E+00 0.  1.
          1    1    1    2  502    0  0.67264992718E+02 -0.47605056954E+01 -0.48638663381E+03  0.49103889785E+03  0.00000000000E+00 0.  1.
         22    1    1    2    0    0  0.39174218325E+01  0.23463299487E+02  0.42157646286E+02  0.48405988855E+02  0.00000000000E+00 0.  1.
         22    1    1    2    0    0 -0.19158046501E+02 -0.10884984528E+02 -0.76463323103E+02  0.79574829022E+02  0.00000000000E+00 0. -1.
</event>
<event>
 6    1  0.4069520E-005  0.2325360E+03  0.7818608E-02  0.1254349E+00
          2   -1    0    0  502    0  0.00000000000E+00  0.00000000000E+00  0.97678211551E+02  0.97678211551E+02  0.00000000000E+00 0. -1.
          1   -1    0    0  501    0 -0.00000000000E+00 -0.00000000000E+00 -0.81294430214E+03  0.81294430214E+03  0.00000000000E+00 0.  1.
          2    1    1    2  501    0 -0.59530389566E+02 -0.85025940128E+02 -0.74127397723E+02  0.12754665370E+03  0.00000000000E+00 0. -1.
          1    1    1    2  502    0  0.37764193544E+02  0.20844771037E+03 -0.53583041813E+03  0.57618644488E+03  0.00000000000E+00 0.  1.
         22    1    1    2    0    0  0.33156246158E+02 -0.11681995382E+03 -0.13062694061E+03  0.17835256063E+03  0.00000000000E+00 0. -1.
         22    1    1    2    0    0 -0.11390050136E+02 -0.66018164239E+01  0.25318665870E+02  0.28536854481E+02  0.00000000000E+00 0. -1.
</event>
<event>
 6    1  0.4069520E-005  0.1056627E+03  0.7818608E-02  0.1337141E+00
          2   -1    0    0  502    0  0.00000000000E+00  0.00000000000E+00  0.12594294728E+03  0.12594294728E+03  0.00000000000E+00 0. -1.
          1   -1    0    0  501    0 -0.00000000000E+00 -0.00000000000E+00 -0.65292303057E+03  0.65292303057E+03  0.00000000000E+00 0. -1.
          2    1    1    2  501    0 -0.42319719755E+02  0.25495122578E+02 -0.36294490723E+02  0.61304567630E+02  0.00000000000E+00 0. -1.
          1    1    1    2  502    0  0.28938139967E+02 -0.63986830923E+02 -0.56299919389E+03  0.56736216194E+03  0.00000000000E+00 0. -1.
         22    1    1    2    0    0  0.17542268633E-01 -0.30135617045E+02  0.74379280528E+02  0.80252308966E+02  0.00000000000E+00 0. -1.
         22    1    1    2    0    0  0.13364037519E+02  0.68627325391E+02 -0.20656792013E+01  0.69946939316E+02  0.00000000000E+00 0. -1.
</event>
<event>
 6    1  0.4069520E-005  0.1512199E+03  0.7818608E-02  0.1328211E+00
          2   -1    0    0  502    0  0.00000000000E+00  0.00000000000E+00  0.23920973278E+02  0.23920973278E+02  0.00000000000E+00 0.  1.
          1   -1    0    0  501    0 -0.00000000000E+00 -0.00000000000E+00 -0.10780215590E+04  0.10780215590E+04  0.00000000000E+00 0.  1.
          2    1    1    2  501    0  0.72076733883E+02 -0.23138968230E+02 -0.31635108702E+03  0.32528215088E+03  0.00000000000E+00 0.  1.
          1    1    1    2  502    0 -0.34789647889E+02 -0.35565742037E+02 -0.45674271064E+03  0.45944438763E+03  0.00000000000E+00 0.  1.
         22    1    1    2    0    0 -0.48478519650E+02  0.54314509006E+02 -0.29199198128E+03  0.30093113811E+03  0.00000000000E+00 0.  1.
         22    1    1    2    0    0  0.11191433656E+02  0.43902012611E+01  0.10985193204E+02  0.16284855668E+02  0.00000000000E+00 0.  1.
</event>
<event>
 6    1  0.4069520E-005  0.2305815E+03  0.7818608E-02  0.1207554E+00
          2   -1    0    0  502    0  0.00000000000E+00  0.00000000000E+00  0.13336853530E+03  0.13336853530E+03  0.00000000000E+00 0. -1.
          1   -1    0    0  501    0 -0.00000000000E+00 -0.00000000000E+00 -0.96441239973E+03  0.96441239973E+03  0.00000000000E+00 0. -1.
          2    1    1    2  501    0  0.18235087001E+02  0.32109545618E+02 -0.49640581885E+03  0.49777733808E+03  0.00000000000E+00 0. -1.
          1    1    1    2  502    0 -0.59154817275E+02 -0.78930309447E+01 -0.42964477463E+03  0.43376978308E+03  0.00000000000E+00 0. -1.
         22    1    1    2    0    0  0.57934001981E+02  0.68779399273E+01 -0.65139347838E+01  0.58703372897E+02  0.00000000000E+00 0. -1.
         22    1    1    2    0    0 -0.17014271707E+02 -0.31094454601E+02  0.10152066384E+03  0.10753044097E+03  0.00000000000E+00 0. -1.
</event>
<event>
 6    1  0.4069520E-005  0.5139113E+02  0.7818608E-02  0.1488135E+00
          2   -1    0    0  502    0  0.00000000000E+00  0.00000000000E+00  0.41745007348E+02  0.41745007348E+02  0.00000000000E+00 0. -1.
          1   -1    0    0  501    0 -0.00000000000E+00 -0.00000000000E+00 -0.33512862452E+03  0.33512862452E+03  0.00000000000E+00 0. -1.
          2    1    1    2  501    0  0.74090032163E+01 -0.29188181605E+02 -0.18170834332E+03  0.18418676746E+03  0.00000000000E+00 0. -1.
          1    1    1    2  502    0  0.12560742945E+02  0.19619811440E+02 -0.37797510017E+02  0.44400011574E+02  0.00000000000E+00 0. -1.
         22    1    1    2    0    0  0.39410766650E+01  0.17319210681E+02 -0.10601198071E+03  0.10748966088E+03  0.00000000000E+00 0. -1.
         22    1    1    2    0    0 -0.23910822827E+02 -0.77508405165E+01  0.32134216873E+02  0.40797191950E+02  0.00000000000E+00 0. -1.
</event>
<event>
 6    1  0.4069520E-005  0.1345797E+03  0.7818608E-02  0.1222413E+00
          2   -1    0    0  502    0  0.00000000000E+00  0.00000000000E+00  0.70151759167E+03  0.70151759167E+03  0.00000000000E+00 0. -1.
          1   -1    0    0  501    0 -0.00000000000E+00 -0.00000000000E+00 -0.12085045853E+03  0.12085045853E+03  0.00000000000E+00 0. -1.
          2    1    1    2  501    0 -0.94530237471E+02  0.11002656523E+03 -0.27601686026E+02  0.14766063769E+03  0.00000000000E+00 0. -1.
          1    1    1    2  502    0  0.36979784800E+02 -0.92128325502E+01 -0.53844372212E+01  0.38488607817E+02  0.00000000000E+00 0. -1.
         22    1    1    2    0    0 -0.12747711455E+02  0.64451158954E+01  0.65429575284E+01  0.15711586790E+02  0.00000000000E+00 0.  1.
         22    1    1    2    0    0  0.70298164126E+02 -0.10725884858E+03  0.60711029886E+03  0.62050721789E+03  0.00000000000E+00 0. -1.
</event>
<event>
 6    1  0.4069520E-005  0.2622429E+03  0.7818608E-02  0.1217079E+00
          2   -1    0    0  502    0  0.00000000000E+00  0.00000000000E+00  0.52080396215E+03  0.52080396215E+03  0.00000000000E+00 0. -1.
          1   -1    0    0  501    0 -0.00000000000E+00 -0.00000000000E+00 -0.25821705713E+03  0.25821705713E+03  0.00000000000E+00 0. -1.
          2    1    1    2  501    0 -0.21484729949E+03  0.11245039965E+03 -0.10879341842E+03  0.26578273528E+03  0.00000000000E+00 0. -1.
          1    1    1    2  502    0  0.20132826961E+03 -0.10412941297E+03  0.28540506253E+03  0.36446132374E+03  0.00000000000E+00 0. -1.
         22    1    1    2    0    0  0.34878781207E+01 -0.19364172088E+02  0.11471794048E+03  0.11639305101E+03  0.00000000000E+00 0. -1.
         22    1    1    2    0    0  0.10031151760E+02  0.11043185400E+02 -0.28742679567E+02  0.32383909247E+02  0.00000000000E+00 0. -1.
</event>
<event>
 6    1  0.4069520E-005  0.2399346E+03  0.7818608E-02  0.1173281E+00
          2   -1    0    0  502    0  0.00000000000E+00  0.00000000000E+00  0.73182431653E+03  0.73182431653E+03  0.00000000000E+00 0.  1.
          1   -1    0    0  501    0 -0.00000000000E+00 -0.00000000000E+00 -0.14679268216E+03  0.14679268216E+03  0.00000000000E+00 0.  1.
          2    1    1    2  501    0 -0.17137813977E+03  0.70149260322E+02 -0.20739277403E+02  0.18633706862E+03  0.00000000000E+00 0.  1.
          1    1    1    2  502    0  0.15863493152E+03 -0.22047388485E+02  0.47635393026E+03  0.50255765412E+03  0.00000000000E+00 0.  1.
         22    1    1    2    0    0 -0.56826390836E+02 -0.35599861312E+02  0.51728067581E+02  0.84689915554E+02  0.00000000000E+00 0.  1.
         22    1    1    2    0    0  0.69569599080E+02 -0.12502010525E+02  0.77688913922E+02  0.10503236039E+03  0.00000000000E+00 0.  1.
</event>
<event>
 6    1  0.4069520E-005  0.9034872E+02  0.7818608E-02  0.1343555E+00
          2   -1    0    0  502    0  0.00000000000E+00  0.00000000000E+00  0.34189104910E+03  0.34189104910E+03  0.00000000000E+00 0.  1.
          1   -1    0    0  501    0 -0.00000000000E+00 -0.00000000000E+00 -0.76093682164E+03  0.76093682164E+03  0.00000000000E+00 0.  1.
          2    1    1    2  501    0  0.14414961062E+02 -0.89724404416E+02  0.42987712029E+02  0.10052961372E+03  0.00000000000E+00 0.  1.
          1    1    1    2  502    0  0.19299980194E+02  0.68804591074E+02 -0.71501703426E+03  0.71857909813E+03  0.00000000000E+00 0.  1.
         22    1    1    2    0    0 -0.97610222703E+01  0.42017709839E+02  0.24762252338E+03  0.25135170495E+03  0.00000000000E+00 0.  1.
         22    1    1    2    0    0 -0.23953918986E+02 -0.21097896498E+02  0.53610263136E+01  0.32367453940E+02  0.00000000000E+00 0.  1.
</event>
<event>
 6    1  0.4069520E-005  0.1153429E+03  0.7818608E-02  0.1299366E+00
          2   -1    0    0  502    0  0.00000000000E+00  0.00000000000E+00  0.15666448474E+03  0.15666448474E+03  0.00000000000E+00 0. -1.
          1   -1    0    0  501    0 -0.00000000000E+00 -0.00000000000E+00 -0.12710489890E+03  0.12710489890E+03  0.00000000000E+00 0. -1.
          2    1    1    2  501    0 -0.13601047807E+02 -0.48766223400E+02  0.25842573008E+02  0.56841636375E+02  0.00000000000E+00 0. -1.
          1    1    1    2  502    0  0.65569874082E+02  0.54927242087E+02 -0.27317976701E+02  0.89792439334E+02  0.00000000000E+00 0. -1.
         22    1    1    2    0    0 -0.10532157880E+02  0.12847048620E+02 -0.45285174593E+02  0.48236086551E+02  0.00000000000E+00 0. -1.
         22    1    1    2    0    0 -0.41436668396E+02 -0.19008067308E+02  0.76320164121E+02  0.88899221380E+02  0.00000000000E+00 0. -1.
</event>
<event>
 6    1  0.4069520E-005  0.2058783E+03  0.7818608E-02  0.1148855E+00
          2   -1    0    0  502    0  0.00000000000E+00  0.00000000000E+00  0.61610893635E+03  0.61610893635E+03  0.00000000000E+00 0. -1.
          1   -1    0    0  501    0 -0.00000000000E+00 -0.00000000000E+00 -0.32016403661E+03  0.32016403661E+03  0.00000000000E+00 0.  1.
          2    1    1    2  501    0  0.16773860220E+03  0.52754303786E+02  0.35295767433E+03  0.39433282276E+03  0.00000000000E+00 0. -1.
          1    1    1    2  502    0  0.39998255799E+02 -0.72563693252E+02 -0.22940986636E+03  0.24391440472E+03  0.00000000000E+00 0.  1.
         22    1    1    2    0    0 -0.21533932546E+03  0.39627663713E+02  0.14206963983E+03  0.26100796804E+03  0.00000000000E+00 0.  1.
         22    1    1    2    0    0  0.76024674601E+01 -0.19818274246E+02  0.30327451948E+02  0.37017777449E+02  0.00000000000E+00 0.  1.
</event>
<event>
 6    1  0.4069520E-005  0.7117681E+02  0.7818608E-02  0.1357412E+00
          2   -1    0    0  502    0  0.00000000000E+00  0.00000000000E+00  0.17968770273E+03  0.17968770273E+03  0.00000000000E+00 0. -1.
          1   -1    0    0  501    0 -0.00000000000E+00 -0.00000000000E+00 -0.33903492723E+03  0.33903492723E+03  0.00000000000E+00 0. -1.
          2    1    1    2  501    0 -0.83807736298E+01 -0.19410146277E+02  0.11698058057E+02  0.24162692470E+02  0.00000000000E+00 0. -1.
          1    1    1    2  502    0  0.22132595320E+02  0.24196381109E+01 -0.30875335517E+03  0.30955506901E+03  0.00000000000E+00 0. -1.
         22    1    1    2    0    0  0.22265460742E+02  0.61617688711E+02  0.83047155572E+02  0.10577958382E+03  0.00000000000E+00 0. -1.
         22    1    1    2    0    0 -0.36017282433E+02 -0.44627180545E+02  0.54660917043E+02  0.79225284658E+02  0.00000000000E+00 0. -1.
</event>
<event>
 6    1  0.4069520E-005  0.1008195E+03  0.7818608E-02  0.1281562E+00
          2   -1    0    0  502    0  0.00000000000E+00  0.00000000000E+00  0.14774926759E+03  0.14774926759E+03  0.00000000000E+00 0. -1.
          1   -1    0    0  501    0 -0.00000000000E+00 -0.00000000000E+00 -0.15204049648E+03  0.15204049648E+03  0.00000000000E+00 0. -1.
          2    1    1    2  501    0  0.30885985385E+02  0.65624696344E+02  0.51427440297E+02  0.88911902909E+02  0.00000000000E+00 0. -1.
          1    1    1    2  502    0 -0.55839764669E+02  0.12640838661E+02 -0.23234891843E+02  0.61787784547E+02  0.00000000000E+00 0. -1.
         22    1    1    2    0    0 -0.48982202188E+01 -0.92433024415E+02 -0.56316666919E+02  0.10834862037E+03  0.00000000000E+00 0. -1.
         22    1    1    2    0    0  0.29851999503E+02  0.14167489411E+02  0.23832889578E+02  0.40741456235E+02  0.00000000000E+00 0. -1.
</event>
<event>
 6    1  0.4069520E-005  0.1424292E+03  0.7818608E-02  0.1303018E+00
          2   -1    0    0  502    0  0.00000000000E+00  0.00000000000E+00  0.44179868751E+03  0.44179868751E+03  0.00000000000E+00 0. -1.
          1   -1    0    0  501    0 -0.00000000000E+00 -0.00000000000E+00 -0.76799321303E+02  0.76799321303E+02  0.00000000000E+00 0. -1.
          2    1    1    2  501    0  0.22463543532E+02  0.44951676659E+02  0.33438550917E+02  0.60360589045E+02  0.00000000000E+00 0. -1.
          1    1    1    2  502    0 -0.74286764200E+02 -0.13605622447E+03  0.18095083766E+03  0.23827090717E+03  0.00000000000E+00 0. -1.
         22    1    1    2    0    0  0.13739464126E+02  0.17992488365E+02  0.13396780171E+03  0.13586712040E+03  0.00000000000E+00 0. -1.
         22    1    1    2    0    0  0.38083756542E+02  0.73112059443E+02  0.16642175916E+02  0.84099392195E+02  0.00000000000E+00 0. -1.
</event>
<event>
 6    1  0.4069520E-005  0.6407799E+02  0.7818608E-02  0.1443720E+00
          2   -1    0    0  502    0  0.00000000000E+00  0.00000000000E+00  0.26300514224E+02  0.26300514224E+02  0.00000000000E+00 0.  1.
          1   -1    0    0  501    0 -0.00000000000E+00 -0.00000000000E+00 -0.45210336172E+03  0.45210336172E+03  0.00000000000E+00 0.  1.
          2    1    1    2  501    0 -0.34016346743E+02 -0.12194179587E+02 -0.76410453352E+02  0.84524358874E+02  0.00000000000E+00 0.  1.
          1    1    1    2  502    0  0.33602162043E+02  0.19492042813E+02 -0.18206287789E+03  0.18616104999E+03  0.00000000000E+00 0.  1.
         22    1    1    2    0    0  0.67026636303E+01  0.23392685199E+02  0.10966564989E+02  0.26690990394E+02  0.00000000000E+00 0.  1.
         22    1    1    2    0    0 -0.62884789302E+01 -0.30690548424E+02 -0.17829608125E+03  0.18102747670E+03  0.00000000000E+00 0. -1.
</event>
<event>
 6    1  0.4069520E-005  0.1571890E+03  0.7818608E-02  0.1272547E+00
          2   -1    0    0  502    0  0.00000000000E+00  0.00000000000E+00  0.87107275595E+02  0.87107275595E+02  0.00000000000E+00 0. -1.
          1   -1    0    0  501    0 -0.00000000000E+00 -0.00000000000E+00 -0.13313434689E+04  0.13313434689E+04  0.00000000000E+00 0.  1.
          2    1    1    2  501    0  0.77268436033E+02  0.11171280783E+02 -0.50483981690E+02  0.92972259995E+02  0.00000000000E+00 0. -1.
          1    1    1    2  502    0 -0.77718730945E+02 -0.10426799412E+03 -0.11618975624E+04  0.11691526680E+04  0.00000000000E+00 0.  1.
         22    1    1    2    0    0 -0.78437165064E+01  0.28815654374E+02  0.46111535426E+02  0.54937596644E+02  0.00000000000E+00 0. -1.
         22    1    1    2    0    0  0.82940114187E+01  0.64281058963E+02 -0.77966184695E+02  0.10138821984E+03  0.00000000000E+00 0. -1.
</event>
<event>
 6    1  0.4069520E-005  0.1100861E+03  0.7818608E-02  0.1281405E+00
          2   -1    0    0  502    0  0.00000000000E+00  0.00000000000E+00  0.13572205091E+04  0.13572205091E+04  0.00000000000E+00 0.  1.
          1   -1    0    0  501    0 -0.00000000000E+00 -0.00000000000E+00 -0.16657655892E+02  0.16657655892E+02  0.00000000000E+00 0.  1.
          2    1    1    2  501    0 -0.15499538036E+02 -0.76307612178E+02  0.24076605156E+03  0.25304422329E+03  0.00000000000E+00 0.  1.
          1    1    1    2  502    0  0.50681534948E+02  0.69161606818E+02  0.49974947778E+03  0.50705175908E+03  0.00000000000E+00 0.  1.
         22    1    1    2    0    0  0.29001915273E+01 -0.55592154148E+02  0.26811482815E+03  0.27383290487E+03  0.00000000000E+00 0.  1.
         22    1    1    2    0    0 -0.38082188439E+02  0.62738159508E+02  0.33193249568E+03  0.33994927772E+03  0.00000000000E+00 0. -1.
</event>
<event>
 6    1  0.4069520E-005  0.1381206E+03  0.7818608E-02  0.1259580E+00
          2   -1    0    0  502    0  0.00000000000E+00  0.00000000000E+00  0.36862813966E+03  0.36862813966E+03  0.00000000000E+00 0.  1.
          1   -1    0    0  501    0 -0.00000000000E+00 -0.00000000000E+00 -0.17087788355E+03  0.17087788355E+03  0.00000000000E+00 0. -1.
          2    1    1    2  501    0 -0.61766275016E+02 -0.38853473728E+02  0.78172426256E+02  0.10693733388E+03  0.00000000000E+00 0.  1.
          1    1    1    2  502    0  0.97080132272E+02  0.30515071005E+02 -0.12223970817E+03  0.15905429228E+03  0.00000000000E+00 0. -1.
         22    1    1    2    0    0  0.17837033324E+02  0.27956885399E+02  0.96558154945E+01  0.34539571101E+02  0.00000000000E+00 0.  1.
         22    1    1    2    0    0 -0.53150890579E+02 -0.19618482676E+02  0.23216172253E+03  0.23897482595E+03  0.00000000000E+00 0. -1.
</event>
<event>
 6    1  0.4069520E-005  0.2270912E+03  0.7818608E-02  0.1175101E+00
          2   -1    0    0  502    0  0.00000000000E+00  0.00000000000E+00  0.46758157246E+03  0.46758157246E+03  0.00000000000E+00 0. -1.
          1   -1    0    0  501    0 -0.00000000000E+00 -0.00000000000E+00 -0.54434928101E+03  0.54434928101E+03  0.00000000000E+00 0. -1.
          2    1    1    2  501    0  0.11270468567E+02  0.38373356285E+02 -0.56440451195E+02  0.69174145932E+02  0.00000000000E+00 0. -1.
          1    1    1    2  502    0  0.15234565951E+02 -0.15042285099E+02 -0.47235388062E+03  0.47283882125E+03  0.00000000000E+00 0. -1.
         22    1    1    2    0    0  0.49733824347E+02 -0.13633344176E+02  0.17862969076E+03  0.18592441415E+03  0.00000000000E+00 0.  1.
         22    1    1    2    0    0 -0.76238858866E+02 -0.96977270100E+01  0.27339693251E+03  0.28399347214E+03  0.00000000000E+00 0. -1.
</event>
<event>
 6    1  0.4069520E-005  0.4542395E+03  0.7818608E-02  0.1152061E+00
          2   -1    0    0  502    0  0.00000000000E+00  0.00000000000E+00  0.19274841848E+03  0.19274841848E+03  0.00000000000E+00 0. -1.
          1   -1    0    0  501    0 -0.00000000000E+00 -0.00000000000E+00 -0.51984307764E+03  0.51984307764E+03  0.00000000000E+00 0. -1.
          2    1    1    2  501    0  0.92092575377E+02 -0.14127668262E+03 -0.24032342909E+03  0.29359069138E+03  0.00000000000E+00 0. -1.
          1    1    1    2  502    0 -0.12445729385E+03 -0.52459666743E+02 -0.12344990285E+03  0.18297954296E+03  0.00000000000E+00 0. -1.
         22    1    1    2    0    0  0.28923929010E+02  0.20952474487E+03  0.19455668431E+02  0.21240465018E+03  0.00000000000E+00 0. -1.
         22    1    1    2    0    0  0.34407894636E+01 -0.15788395513E+02  0.17223004353E+02  0.23616611610E+02  0.00000000000E+00 0. -1.
</event>
<event>
 6    1  0.4069520E-005  0.1249755E+03  0.7818608E-02  0.1313447E+00
          2   -1    0    0  502    0  0.00000000000E+00  0.00000000000E+00  0.57740768235E+02  0.57740768235E+02  0.00000000000E+00 0.  1.
          1   -1    0    0  501    0 -0.00000000000E+00 -0.00000000000E+00 -0.49496182485E+03  0.49496182485E+03  0.00000000000E+00 0.  1.
          2    1    1    2  501    0  0.63085669516E+02 -0.58317486681E+02 -0.13559506227E+03  0.16052025375E+03  0.00000000000E+00 0.  1.
          1    1    1    2  502    0 -0.89693693606E+02  0.11131575183E+02 -0.20406223272E+03  0.22318213518E+03  0.00000000000E+00 0.  1.
         22    1    1    2    0    0 -0.11758506687E+02  0.25099142869E+02  0.25841414861E+02  0.37894698498E+02  0.00000000000E+00 0.  1.
         22    1    1    2    0    0  0.38366530776E+02  0.22086768629E+02 -0.12340517648E+03  0.13110550566E+03  0.00000000000E+00 0.  1.
</event>
<event>
 6    1  0.4069520E-005  0.1467060E+03  0.7818608E-02  0.1205325E+00
          2   -1    0    0  502    0  0.00000000000E+00  0.00000000000E+00  0.19442219945E+03  0.19442219945E+03  0.00000000000E+00 0.  1.
          1   -1    0    0  501    0 -0.00000000000E+00 -0.00000000000E+00 -0.14701183102E+04  0.14701183102E+04  0.00000000000E+00 0. -1.
          2    1    1    2  501    0  0.90958476822E+02  0.86764194210E+02  0.87841654738E+02  0.15335457675E+03  0.00000000000E+00 0.  1.
          1    1    1    2  502    0  0.23918153335E+02  0.39192218670E+02 -0.12813674641E+04  0.12821898011E+04  0.00000000000E+00 0. -1.
         22    1    1    2    0    0  0.88965294829E+01  0.60556673591E+01  0.18880587865E+02  0.21732370835E+02  0.00000000000E+00 0.  1.
         22    1    1    2    0    0 -0.12377315964E+03 -0.13201208024E+03 -0.10105088923E+03  0.20726376092E+03  0.00000000000E+00 0.  1.
</event>
<event>
 6    1  0.4069520E-005  0.1793710E+03  0.7818608E-02  0.1247446E+00
          2   -1    0    0  502    0  0.00000000000E+00  0.00000000000E+00  0.62025827291E+02  0.62025827291E+02  0.00000000000E+00 0. -1.
          1   -1    0    0  501    0 -0.00000000000E+00 -0.00000000000E+00 -0.61828988388E+03  0.61828988388E+03  0.00000000000E+00 0. -1.
          2    1    1    2  501    0 -0.62051695907E+02 -0.30242634570E+02 -0.19111841022E+03  0.20320255076E+03  0.00000000000E+00 0. -1.
          1    1    1    2  502    0  0.81676090710E+01  0.13469807965E+03 -0.13551308921E+03  0.19124350929E+03  0.00000000000E+00 0. -1.
         22    1    1    2    0    0  0.69701713090E+02 -0.75586123570E+02 -0.23107706965E+03  0.25291936067E+03  0.00000000000E+00 0. -1.
         22    1    1    2    0    0 -0.15817626254E+02 -0.28869321506E+02  0.14445124885E+01  0.32950290452E+02  0.00000000000E+00 0. -1.
</event>
<event>
 6    1  0.4069520E-005  0.1089384E+03  0.7818608E-02  0.1321411E+00
          2   -1    0    0  502    0  0.00000000000E+00  0.00000000000E+00  0.54781796538E+02  0.54781796538E+02  0.00000000000E+00 0.  1.
          1   -1    0    0  501    0 -0.00000000000E+00 -0.00000000000E+00 -0.40612042365E+03  0.40612042365E+03  0.00000000000E+00 0. -1.
          2    1    1    2  501    0 -0.13973193904E+02  0.44605465991E+02 -0.67594437211E+02  0.82182149437E+02  0.00000000000E+00 0.  1.
          1    1    1    2  502    0  0.62481473186E+01 -0.10688268099E+03 -0.16018217243E+03  0.19266882261E+03  0.00000000000E+00 0. -1.
         22    1    1    2    0    0 -0.27120036411E+02  0.24093629811E+02  0.14163958944E+02  0.38943768505E+02  0.00000000000E+00 0.  1.
         22    1    1    2    0    0  0.34845082996E+02  0.38183585185E+02 -0.13772597641E+03  0.14710747964E+03  0.00000000000E+00 0. -1.
</event>
<event>
 6    1  0.4069520E-005  0.1430447E+03  0.7818608E-02  0.1217135E+00
          2   -1    0    0  502    0  0.00000000000E+00  0.00000000000E+00  0.43458061847E+03  0.43458061847E+03  0.00000000000E+00 0. -1.
          1   -1    0    0  501    0 -0.00000000000E+00 -0.00000000000E+00 -0.77064174118E+02  0.77064174118E+02  0.00000000000E+00 0. -1.
          2    1    1    2  501    0 -0.11026994013E+03 -0.33591990016E+02  0.24062141581E+03  0.26680807191E+03  0.00000000000E+00 0. -1.
          1    1    1    2  502    0  0.32601378295E+02  0.35945861095E+02 -0.11151031976E+02  0.49792572847E+02  0.00000000000E+00 0. -1.
         22    1    1    2    0    0 -0.68895509676E+01 -0.43205092539E+02  0.75957017794E+02  0.87656229020E+02  0.00000000000E+00 0. -1.
         22    1    1    2    0    0  0.84558112801E+02  0.40851221460E+02  0.52089042727E+02  0.10738791882E+03  0.00000000000E+00 0. -1.
</event>
<event>
 6    1  0.4069520E-005  0.4387123E+03  0.7818608E-02  0.1151641E+00
          2   -1    0    0  502    0  0.00000000000E+00  0.00000000000E+00  0.95503873784E+03  0.95503873784E+03  0.00000000000E+00 0. -1.
          1   -1    0    0  501    0 -0.00000000000E+00 -0.00000000000E+00 -0.76961634454E+03  0.76961634454E+03  0.00000000000E+00 0.  1.
          2    1    1    2  501    0  0.29966622261E+02 -0.10260719115E+03  0.40423112372E+02  0.11428150392E+03  0.00000000000E+00 0. -1.
          1    1    1    2  502    0  0.41103274942E+02 -0.11678710767E+03 -0.70733130600E+03  0.71808515106E+03  0.00000000000E+00 0.  1.
         22    1    1    2    0    0  0.14343577863E+02 -0.11063508307E+02  0.66176629654E+02  0.68611119757E+02  0.00000000000E+00 0. -1.
         22    1    1    2    0    0 -0.85413475067E+02  0.23045780713E+03  0.78615395727E+03  0.82367730764E+03  0.00000000000E+00 0. -1.
</event>
<event>
 6    1  0.4069520E-005  0.2104108E+03  0.7818608E-02  0.1255980E+00
          2   -1    0    0  502    0  0.00000000000E+00  0.00000000000E+00  0.90581391845E+02  0.90581391845E+02  0.00000000000E+00 0. -1.
          1   -1    0    0  501    0 -0.00000000000E+00 -0.00000000000E+00 -0.15693948576E+04  0.15693948576E+04  0.00000000000E+00 0.  1.
          2    1    1    2  501    0  0.14969177058E+01 -0.45969274370E+02 -0.54164193053E+02  0.71057545397E+02  0.00000000000E+00 0. -1.
          1    1    1    2  502    0  0.12824173770E+03  0.14560836850E+03 -0.13599270504E+04  0.13736991384E+04  0.00000000000E+00 0.  1.
         22    1    1    2    0    0 -0.65647353507E+01 -0.15903272441E+02  0.32906525793E+02  0.37132859630E+02  0.00000000000E+00 0.  1.
         22    1    1    2    0    0 -0.12317392005E+03 -0.83735821692E+02 -0.97628748025E+02  0.17808670601E+03  0.00000000000E+00 0.  1.
</event>
<event>
 6    1  0.4069520E-005  0.1300590E+03  0.7818608E-02  0.1273278E+00
          2   -1    0    0  502    0  0.00000000000E+00  0.00000000000E+00  0.50192840953E+03  0.50192840953E+03  0.00000000000E+00 0.  1.
          1   -1    0    0  501    0 -0.00000000000E+00 -0.00000000000E+00 -0.32305799084E+03  0.32305799084E+03  0.00000000000E+00 0.  1.
          2    1    1    2  501    0  0.24810531076E+02 -0.30736009614E+00  0.34448642363E+02  0.42454279916E+02  0.00000000000E+00 0.  1.
          1    1    1    2  502    0  0.39268878838E+02 -0.81947924051E+02 -0.29781122019E+03  0.31136639184E+03  0.00000000000E+00 0.  1.
         22    1    1    2    0    0  0.20570241118E+02  0.47742840534E+02  0.28146150170E+03  0.28622210009E+03  0.00000000000E+00 0.  1.
         22    1    1    2    0    0 -0.84649651031E+02  0.34512443613E+02  0.16077149481E+03  0.18494362851E+03  0.00000000000E+00 0.  1.
</event>
<event>
 6    1  0.4069520E-005  0.1686975E+03  0.7818608E-02  0.1233304E+00
          2   -1    0    0  502    0  0.00000000000E+00  0.00000000000E+00  0.15629120542E+03  0.15629120542E+03  0.00000000000E+00 0.  1.
          1   -1    0    0  501    0 -0.00000000000E+00 -0.00000000000E+00 -0.32357127038E+03  0.32357127038E+03  0.00000000000E+00 0.  1.
          2    1    1    2  501    0  0.72907269303E+02 -0.21578280853E+02  0.11119098630E+02  0.76842218058E+02  0.00000000000E+00 0.  1.
          1    1    1    2  502    0 -0.12233623871E+02 -0.29656212588E+02 -0.24167702819E+03  0.24379692052E+03  0.00000000000E+00 0.  1.
         22    1    1    2    0    0 -0.38970521737E+02  0.91577548596E+02  0.50821867765E+02  0.11174977053E+03  0.00000000000E+00 0.  1.
         22    1    1    2    0    0 -0.21703123694E+02 -0.40343055155E+02  0.12455996842E+02  0.47473566694E+02  0.00000000000E+00 0.  1.
</event>
<event>
 6    1  0.4069520E-005  0.7055745E+02  0.7818608E-02  0.1477661E+00
          2   -1    0    0  502    0  0.00000000000E+00  0.00000000000E+00  0.35602030386E+02  0.35602030386E+02  0.00000000000E+00 0.  1.
          1   -1    0    0  501    0 -0.00000000000E+00 -0.00000000000E+00 -0.10423346329E+04  0.10423346329E+04  0.00000000000E+00 0.  1.
          2    1    1    2  501    0 -0.69886942464E+01  0.35000608442E+02 -0.30087684719E+03  0.30298640500E+03  0.00000000000E+00 0.  1.
          1    1    1    2  502    0 -0.30335395598E+02 -0.32512518657E+02 -0.62114925849E+03  0.62273887097E+03  0.00000000000E+00 0.  1.
         22    1    1    2    0    0  0.30441514976E+02  0.62667485859E+01 -0.11542522772E+03  0.11953635918E+03  0.00000000000E+00 0.  1.
         22    1    1    2    0    0  0.68825748680E+01 -0.87548383707E+01  0.30718730923E+02  0.32675028099E+02  0.00000000000E+00 0.  1.
</event>
<event>
 6    1  0.4069520E-005  0.9322590E+02  0.7818608E-02  0.1298156E+00
          2   -1    0    0  502    0  0.00000000000E+00  0.00000000000E+00  0.30208954267E+03  0.30208954267E+03  0.00000000000E+00 0. -1.
          1   -1    0    0  501    0 -0.00000000000E+00 -0.00000000000E+00 -0.74037276430E+03  0.74037276430E+03  0.00000000000E+00 0.  1.
          2    1    1    2  501    0 -0.31336827314E+02 -0.35473662270E+01  0.13332301755E+02  0.34239316923E+02  0.00000000000E+00 0. -1.
          1    1    1    2  502    0 -0.44791986573E+02  0.11375954507E+02 -0.71011039661E+03  0.71161261215E+03  0.00000000000E+00 0.  1.
         22    1    1    2    0    0  0.10445260390E+03 -0.27432545013E+02  0.21916845862E+03  0.24433113645E+03  0.00000000000E+00 0. -1.
         22    1    1    2    0    0 -0.28323790012E+02  0.19603956734E+02  0.39326414608E+02  0.52279241446E+02  0.00000000000E+00 0. -1.
</event>
<event>
 6    1  0.4069520E-005  0.2481940E+03  0.7818608E-02  0.1205748E+00
          2   -1    0    0  502    0  0.00000000000E+00  0.00000000000E+00  0.87282301144E+03  0.87282301144E+03  0.00000000000E+00 0.  1.
          1   -1    0    0  501    0 -0.00000000000E+00 -0.00000000000E+00 -0.15570359336E+04  0.15570359336E+04  0.00000000000E+00 0.  1.
          2    1    1    2  501    0  0.23254706570E+01 -0.37992864810E+02  0.37972195086E+02  0.53765725048E+02  0.00000000000E+00 0.  1.
          1    1    1    2  502    0 -0.18174873132E+03 -0.10366472560E+02 -0.15285186609E+04  0.15393210717E+04  0.00000000000E+00 0.  1.
         22    1    1    2    0    0  0.17490906350E+03  0.77558099117E+02  0.64600394191E+03  0.67374292738E+03  0.00000000000E+00 0.  1.
         22    1    1    2    0    0  0.45141971624E+01 -0.29198761747E+02  0.16032960176E+03  0.16302922089E+03  0.00000000000E+00 0.  1.
</event>
<event>
 6    1  0.4069520E-005  0.7684883E+02  0.7818608E-02  0.1340699E+00
          2   -1    0    0  502    0  0.00000000000E+00  0.00000000000E+00  0.21990981011E+03  0.21990981011E+03  0.00000000000E+00 0. -1.
          1   -1    0    0  501    0 -0.00000000000E+00 -0.00000000000E+00 -0.72556566326E+03  0.72556566326E+03  0.00000000000E+00 0.  1.
          2    1    1    2  501    0 -0.21548121428E+02  0.48733651295E+01  0.20513143968E+02  0.30147309999E+02  0.00000000000E+00 0. -1.
          1    1    1    2  502    0  0.16223661106E+02  0.12912329165E+02 -0.69872119304E+03  0.69902878412E+03  0.00000000000E+00 0.  1.
         22    1    1    2    0    0 -0.48457902781E+02  0.27871978771E+02  0.10321468806E+03  0.11738094980E+03  0.00000000000E+00 0. -1.
         22    1    1    2    0    0  0.53782363103E+02 -0.45657673065E+02  0.69337507853E+02  0.98918429455E+02  0.00000000000E+00 0.  1.
</event>
<event>
 6    1  0.4069520E-005  0.1629568E+03  0.7818608E-02  0.1272104E+00
          2   -1    0    0  502    0  0.00000000000E+00  0.00000000000E+00  0.10320097234E+03  0.10320097234E+03  0.00000000000E+00 0. -1.
          1   -1    0    0  501    0 -0.00000000000E+00 -0.00000000000E+00 -0.86480870371E+03  0.86480870371E+03  0.00000000000E+00 0. -1.
          2    1    1    2  501    0  0.98641511303E+02 -0.49398911680E+02 -0.34682701496E+03  0.36394969231E+03  0.00000000000E+00 0. -1.
          1    1    1    2  502    0 -0.12788877487E+03  0.91019586855E+02 -0.43941212926E+03  0.46660810459E+03  0.00000000000E+00 0. -1.
         22    1    1    2    0    0 -0.64000810181E+01 -0.26265109280E+02  0.71592659898E+02  0.76526635584E+02  0.00000000000E+00 0. -1.
         22    1    1    2    0    0  0.35647344588E+02 -0.15355565895E+02 -0.46961247048E+02  0.60925243572E+02  0.00000000000E+00 0. -1.
</event>
<event>
 6    1  0.4069520E-005  0.8449183E+02  0.7818608E-02  0.1331834E+00
          2   -1    0    0  502    0  0.00000000000E+00  0.00000000000E+00  0.16952155956E+03  0.16952155956E+03  0.00000000000E+00 0. -1.
          1   -1    0    0  501    0 -0.00000000000E+00 -0.00000000000E+00 -0.11658571487E+03  0.11658571487E+03  0.00000000000E+00 0. -1.
          2    1    1    2  501    0  0.35465986264E+02  0.30976486932E+02 -0.56965864785E+01  0.47432373142E+02  0.00000000000E+00 0. -1.
          1    1    1    2  502    0  0.10241285619E+02 -0.81501747081E+02 -0.10213686209E+02  0.82775226332E+02  0.00000000000E+00 0. -1.
         22    1    1    2    0    0  0.18668297953E+02  0.44408217229E+02 -0.14594363497E+02  0.50334784710E+02  0.00000000000E+00 0. -1.
         22    1    1    2    0    0 -0.64375569836E+02  0.61170429191E+01  0.83440480868E+02  0.10556489025E+03  0.00000000000E+00 0. -1.
</event>
<event>
 6    1  0.4069520E-005  0.2927405E+03  0.7818608E-02  0.1131742E+00
          2   -1    0    0  502    0  0.00000000000E+00  0.00000000000E+00  0.24227197752E+03  0.24227197752E+03  0.00000000000E+00 0. -1.
          1   -1    0    0  501    0 -0.00000000000E+00 -0.00000000000E+00 -0.15281598938E+04  0.15281598938E+04  0.00000000000E+00 0.  1.
          2    1    1    2  501    0  0.90306083787E+02 -0.54919940069E+02 -0.15553212306E+03  0.18804688216E+03  0.00000000000E+00 0. -1.
          1    1    1    2  502    0 -0.30977624173E+02  0.19106974906E+02 -0.13339867333E+04  0.13344831562E+04  0.00000000000E+00 0.  1.
         22    1    1    2    0    0  0.19021600516E+02 -0.17020772047E+02  0.11683584982E+03  0.11959157065E+03  0.00000000000E+00 0.  1.
         22    1    1    2    0    0 -0.78350060130E+02  0.52833737210E+02  0.86795090258E+02  0.12831026227E+03  0.00000000000E+00 0. -1.
</event>
<event>
 6    1  0.4069520E-005  0.5033772E+03  0.7818608E-02  0.1137027E+00
          2   -1    0    0  502    0  0.00000000000E+00  0.00000000000E+00  0.15834864060E+03  0.15834864060E+03  0.00000000000E+00 0.  1.
          1   -1    0    0  501    0 -0.00000000000E+00 -0.00000000000E+00 -0.20348234408E+04  0.20348234408E+04  0.00000000000E+00 0.  1.
          2    1    1    2  501    0  0.20681188011E+03 -0.15031770539E+03 -0.10874655199E+03  0.27783516494E+03  0.00000000000E+00 0.  1.
          1    1    1    2  502    0 -0.92866561641E+02 -0.53691893998E+02 -0.15939537774E+04  0.15975592829E+04  0.00000000000E+00 0.  1.
         22    1    1    2    0    0 -0.12898317966E+01 -0.16964973894E+02 -0.18574937286E+02  0.25189329099E+02  0.00000000000E+00 0. -1.
         22    1    1    2    0    0 -0.11265548668E+03  0.22097457328E+03 -0.15519953350E+03  0.29258830447E+03  0.00000000000E+00 0.  1.
</event>
<event>
 6    1  0.4069520E-005  0.1225880E+03  0.7818608E-02  0.1310159E+00
          2   -1    0    0  502    0  0.00000000000E+00  0.00000000000E+00  0.31200944898E+02  0.31200944898E+02  0.00000000000E+00 0. -1.
          1   -1    0    0  501    0 -0.00000000000E+00 -0.00000000000E+00 -0.11413968634E+04  0.11413968634E+04  0.00000000000E+00 0. -1.
          2    1    1    2  501    0  0.19411292871E+02  0.15833908632E+02 -0.69893376833E+02  0.74246852314E+02  0.00000000000E+00 0. -1.
          1    1    1    2  502    0 -0.63281316996E+02 -0.95377305782E+02 -0.83626303860E+03  0.84405996544E+03  0.00000000000E+00 0. -1.
         22    1    1    2    0    0  0.23468472803E+02  0.10310719369E+03 -0.19501985116E+03  0.22184364979E+03  0.00000000000E+00 0. -1.
         22    1    1    2    0    0  0.20401551322E+02 -0.23563796538E+02 -0.90196519642E+01  0.32447340803E+02  0.00000000000E+00 0.  1.
</event>
<event>
 6    1  0.4069520E-005  0.1541409E+03  0.7818608E-02  0.1199080E+00
          2   -1    0    0  502    0  0.00000000000E+00  0.00000000000E+00  0.12286345455E+03  0.12286345455E+03  0.00000000000E+00 0. -1.
          1   -1    0    0  501    0 -0.00000000000E+00 -0.00000000000E+00 -0.68093145641E+03  0.68093145641E+03  0.00000000000E+00 0.  1.
          2    1    1    2  501    0 -0.29824091549E+02  0.13492456796E+02  0.26598331935E+02  0.42178123344E+02  0.00000000000E+00 0. -1.
          1    1    1    2  502    0  0.10355309833E+03  0.14172318158E+03 -0.50935321637E+03  0.53874799619E+03  0.00000000000E+00 0.  1.
         22    1    1    2    0    0 -0.19899718208E+02 -0.41990231872E+01  0.26156483879E+02  0.33132947792E+02  0.00000000000E+00 0.  1.
         22    1    1    2    0    0 -0.53829288572E+02 -0.15101661519E+03 -0.10146960131E+03  0.18973584364E+03  0.00000000000E+00 0. -1.
</event>
<event>
 6    1  0.4069520E-005  0.1940188E+03  0.7818608E-02  0.1237276E+00
          2   -1    0    0  502    0  0.00000000000E+00  0.00000000000E+00  0.52367539450E+03  0.52367539450E+03  0.00000000000E+00 0.  1.
          1   -1    0    0  501    0 -0.00000000000E+00 -0.00000000000E+00 -0.13502691141E+04  0.13502691141E+04  0.00000000000E+00 0. -1.
          2    1    1    2  501    0 -0.57264685927E+02  0.34528023471E+02  0.34584837956E+03  0.35225350289E+03  0.00000000000E+00 0.  1.
          1    1    1    2  502    0  0.89840271477E+02 -0.81984099896E+02 -0.13179904282E+04  0.13235903580E+04  0.00000000000E+00 0. -1.
         22    1    1    2    0    0  0.30696103191E+02 -0.88770929760E+01  0.93177418688E+02  0.98504237899E+02  0.00000000000E+00 0. -1.
         22    1    1    2    0    0 -0.63271688741E+02  0.56333169401E+02  0.52370910426E+02  0.99596409724E+02  0.00000000000E+00 0.  1.
</event>
<event>
 6    1  0.4069520E-005  0.1740416E+03  0.7818608E-02  0.1219941E+00
          2   -1    0    0  502    0  0.00000000000E+00  0.00000000000E+00  0.10264373662E+03  0.10264373662E+03  0.00000000000E+00 0. -1.
          1   -1    0    0  501    0 -0.00000000000E+00 -0.00000000000E+00 -0.10825572952E+04  0.10825572952E+04  0.00000000000E+00 0.  1.
          2    1    1    2  501    0  0.33636444009E+02  0.12822108461E+02 -0.81289814607E+01  0.36903890995E+02  0.00000000000E+00 0. -1.
          1    1    1    2  502    0  0.70534418073E+02 -0.13022719800E+03 -0.93399953509E+03  0.94566873629E+03  0.00000000000E+00 0.  1.
         22    1    1    2    0    0 -0.63224673715E+02  0.43688454880E+01 -0.51449799736E+02  0.81630435930E+02  0.00000000000E+00 0. -1.
         22    1    1    2    0    0 -0.40946188367E+02  0.11303624405E+03  0.13664757684E+02  0.12099796863E+03  0.00000000000E+00 0. -1.
</event>
<event>
 6    1  0.4069520E-005  0.5442436E+03  0.7818608E-02  0.1117854E+00
          2   -1    0    0  502    0  0.00000000000E+00  0.00000000000E+00  0.49294525634E+03  0.49294525634E+03  0.00000000000E+00 0.  1.
          1   -1    0    0  501    0 -0.00000000000E+00 -0.00000000000E+00 -0.22111527122E+03  0.22111527122E+03  0.00000000000E+00 0.  1.
          2    1    1    2  501    0  0.30343506645E+02  0.96854485218E+02 -0.15639128476E+03  0.18643967832E+03  0.00000000000E+00 0.  1.
          1    1    1    2  502    0  0.41723006337E+02  0.54618960689E+02  0.25663442694E+02  0.73366561971E+02  0.00000000000E+00 0.  1.
         22    1    1    2    0    0 -0.88594597899E+02 -0.16538823532E+03  0.34402989056E+03  0.39186584025E+03  0.00000000000E+00 0.  1.
         22    1    1    2    0    0  0.16528084917E+02  0.13914789412E+02  0.58527936636E+02  0.62388447025E+02  0.00000000000E+00 0. -1.
</event>
<event>
 6    1  0.4069520E-005  0.1137005E+03  0.7818608E-02  0.1355613E+00
          2   -1    0    0  502    0  0.00000000000E+00  0.00000000000E+00  0.28567952855E+02  0.28567952855E+02  0.00000000000E+00 0. -1.
          1   -1    0    0  501    0 -0.00000000000E+00 -0.00000000000E+00 -0.84825996715E+03  0.84825996715E+03  0.00000000000E+00 0. -1.
          2    1    1    2  501    0  0.87146608971E+01 -0.42097609438E+02 -0.15148990738E+03  0.15747173103E+03  0.00000000000E+00 0. -1.
          1    1    1    2  502    0 -0.52582210837E+02  0.10447656760E+03 -0.31153940159E+03  0.33277175483E+03  0.00000000000E+00 0. -1.
         22    1    1    2    0    0 -0.16455072235E+00 -0.17615254622E+02  0.59360170588E+01  0.18589259557E+02  0.00000000000E+00 0.  1.
         22    1    1    2    0    0  0.44032100663E+02 -0.44763703535E+02 -0.36259872239E+03  0.36799517459E+03  0.00000000000E+00 0. -1.
</event>
<event>
 6    1  0.4069520E-005  0.1009419E+03  0.7818608E-02  0.1380602E+00
          2   -1    0    0  502    0  0.00000000000E+00  0.00000000000E+00  0.12774832555E+03  0.12774832555E+03  0.00000000000E+00 0.  1.
          1   -1    0    0  501    0 -0.00000000000E+00 -0.00000000000E+00 -0.80521642389E+02  0.80521642389E+02  0.00000000000E+00 0.  1.
          2    1    1    2  501    0 -0.27592929212E+02 -0.13746701263E+02  0.51880030434E+01  0.31261108645E+02  0.00000000000E+00 0.  1.
          1    1    1    2  502    0 -0.14850036068E+02 -0.25780136682E+02  0.13760507487E+02  0.32779423193E+02  0.00000000000E+00 0.  1.
         22    1    1    2    0    0  0.57569629891E+02  0.32627322581E+02 -0.37720734530E+02  0.76168617409E+02  0.00000000000E+00 0.  1.
         22    1    1    2    0    0 -0.15126664611E+02  0.68995153649E+01  0.65998907156E+02  0.68060818687E+02  0.00000000000E+00 0.  1.
</event>
<event>
 6    1  0.4069520E-005  0.1668075E+03  0.7818608E-02  0.1232153E+00
          2   -1    0    0  502    0  0.00000000000E+00  0.00000000000E+00  0.15301281908E+03  0.15301281908E+03  0.00000000000E+00 0. -1.
          1   -1    0    0  501    0 -0.00000000000E+00 -0.00000000000E+00 -0.11411562708E+04  0.11411562708E+04  0.00000000000E+00 0. -1.
          2    1    1    2  501    0  0.13035053126E+02 -0.15834622993E+02 -0.19663090825E+03  0.19769765293E+03  0.00000000000E+00 0. -1.
          1    1    1    2  502    0 -0.85205390933E+02  0.44728565828E+02 -0.90392157460E+03  0.90902960143E+03  0.00000000000E+00 0. -1.
         22    1    1    2    0    0  0.51198208535E+02  0.22864295675E+02 -0.61307772365E+01  0.56405841927E+02  0.00000000000E+00 0. -1.
         22    1    1    2    0    0  0.20972129271E+02 -0.51758238509E+02  0.11853980834E+03  0.13103599361E+03  0.00000000000E+00 0. -1.
</event>
<event>
 6    1  0.4069520E-005  0.1042941E+03  0.7818608E-02  0.1349619E+00
          2   -1    0    0  502    0  0.00000000000E+00  0.00000000000E+00  0.12198703037E+03  0.12198703037E+03  0.00000000000E+00 0.  1.
          1   -1    0    0  501    0 -0.00000000000E+00 -0.00000000000E+00 -0.41688159162E+03  0.41688159162E+03  0.00000000000E+00 0.  1.
          2    1    1    2  501    0 -0.66208232357E+02  0.32494538597E+02 -0.16887094329E+03  0.18427376525E+03  0.00000000000E+00 0.  1.
          1    1    1    2  502    0  0.10902740774E+03 -0.34849394789E+02 -0.18053135755E+03  0.21375927352E+03  0.00000000000E+00 0.  1.
         22    1    1    2    0    0 -0.23174697360E+02  0.10083315047E+02  0.93304859221E+02  0.96667143303E+02  0.00000000000E+00 0.  1.
         22    1    1    2    0    0 -0.19644478026E+02 -0.77284588553E+01 -0.38797119636E+02  0.44168439923E+02  0.00000000000E+00 0.  1.
</event>
<event>
 6    1  0.4069520E-005  0.1567138E+03  0.7818608E-02  0.1217522E+00
          2   -1    0    0  502    0  0.00000000000E+00  0.00000000000E+00  0.13317998805E+03  0.13317998805E+03  0.00000000000E+00 0.  1.
          1   -1    0    0  501    0 -0.00000000000E+00 -0.00000000000E+00 -0.13429603172E+04  0.13429603172E+04  0.00000000000E+00 0.  1.
          2    1    1    2  501    0  0.33077033391E+02  0.20499819616E+03 -0.21582977434E+03  0.29950098841E+03  0.00000000000E+00 0.  1.
          1    1    1    2  502    0 -0.46345862806E+02 -0.13565270759E+03 -0.10224925292E+04  0.10324924059E+04  0.00000000000E+00 0.  1.
         22    1    1    2    0    0  0.22324604288E+02 -0.88569515365E+02  0.57721500359E+02  0.10804961181E+03  0.00000000000E+00 0.  1.
         22    1    1    2    0    0 -0.90557748739E+01  0.19224026795E+02 -0.29179525996E+02  0.36097299097E+02  0.00000000000E+00 0. -1.
</event>
<event>
 6    1  0.4069520E-005  0.1585005E+03  0.7818608E-02  0.1193727E+00
          2   -1    0    0  502    0  0.00000000000E+00  0.00000000000E+00  0.56242855612E+03  0.56242855612E+03  0.00000000000E+00 0.  1.
          1   -1    0    0  501    0 -0.00000000000E+00 -0.00000000000E+00 -0.63714655008E+02  0.63714655008E+02  0.00000000000E+00 0.  1.
          2    1    1    2  501    0  0.11614893852E+02  0.13977042251E+03  0.10387898505E+03  0.17453229015E+03  0.00000000000E+00 0.  1.
          1    1    1    2  502    0  0.21254041792E+02 -0.30319009245E+02  0.22595733857E+02  0.43376765701E+02  0.00000000000E+00 0.  1.
         22    1    1    2    0    0 -0.44511316081E+02 -0.13358999479E+03  0.31252251360E+03  0.34277961648E+03  0.00000000000E+00 0.  1.
         22    1    1    2    0    0  0.11642380437E+02  0.24138581525E+02  0.59716668600E+02  0.65454538796E+02  0.00000000000E+00 0.  1.
</event>
<event>
 6    1  0.4069520E-005  0.1090353E+03  0.7818608E-02  0.1381420E+00
          2   -1    0    0  502    0  0.00000000000E+00  0.00000000000E+00  0.55655031563E+02  0.55655031563E+02  0.00000000000E+00 0.  1.
          1   -1    0    0  501    0 -0.00000000000E+00 -0.00000000000E+00 -0.59218710563E+03  0.59218710563E+03  0.00000000000E+00 0.  1.
          2    1    1    2  501    0 -0.82615982527E+01  0.20721958032E+02  0.15209411633E+02  0.26999625046E+02  0.00000000000E+00 0.  1.
          1    1    1    2  502    0 -0.88719024805E+01 -0.32567155248E+02 -0.46152713809E+03  0.46275979671E+03  0.00000000000E+00 0.  1.
         22    1    1    2    0    0  0.23392287664E+02  0.43161334779E+00 -0.12174399103E+03  0.12397170953E+03  0.00000000000E+00 0. -1.
         22    1    1    2    0    0 -0.62587869311E+01  0.11413583868E+02  0.31529643415E+02  0.34111005914E+02  0.00000000000E+00 0.  1.
</event>
<event>
 6    1  0.4069520E-005  0.1040100E+03  0.7818608E-02  0.1405695E+00
          2   -1    0    0  502    0  0.00000000000E+00  0.00000000000E+00  0.67748695278E+02  0.67748695278E+02  0.00000000000E+00 0. -1.
          1   -1    0    0  501    0 -0.00000000000E+00 -0.00000000000E+00 -0.64339408478E+03  0.64339408478E+03  0.00000000000E+00 0. -1.
          2    1    1    2  501    0  0.14039195069E+02 -0.31725006752E+02 -0.15573608029E+02  0.38027783510E+02  0.00000000000E+00 0. -1.
          1    1    1    2  502    0 -0.40904943325E+02  0.90312231288E+02 -0.51683064193E+03  0.52625414578E+03  0.00000000000E+00 0. -1.
         22    1    1    2    0    0 -0.98727824895E+01 -0.24520726959E+01  0.39241920005E+02  0.40539027866E+02  0.00000000000E+00 0. -1.
         22    1    1    2    0    0  0.36738530746E+02 -0.56135151841E+02 -0.82483059544E+02  0.10632182290E+03  0.00000000000E+00 0. -1.
</event>
<event>
 6    1  0.4069520E-005  0.7968809E+02  0.7818608E-02  0.1335900E+00
          2   -1    0    0  502    0  0.00000000000E+00  0.00000000000E+00  0.83900112968E+02  0.83900112968E+02  0.00000000000E+00 0.  1.
          1   -1    0    0  501    0 -0.00000000000E+00 -0.00000000000E+00 -0.46909768715E+03  0.46909768715E+03  0.00000000000E+00 0. -1.
          2    1    1    2  501    0  0.35631664748E+02 -0.14584758832E+02  0.33515185973E+02  0.51045062580E+02  0.00000000000E+00 0.  1.
          1    1    1    2  502    0  0.17957993618E+02  0.51275710082E+02 -0.32988274330E+03  0.33432665509E+03  0.00000000000E+00 0. -1.
         22    1    1    2    0    0  0.32890821301E+02  0.82586670321E+01  0.25709966095E+01  0.34009141868E+02  0.00000000000E+00 0. -1.
         22    1    1    2    0    0 -0.86480479668E+02 -0.44949618282E+02 -0.91401013468E+02  0.13361694058E+03  0.00000000000E+00 0. -1.
</event>
<event>
 6    1  0.4069520E-005  0.5166268E+03  0.7818608E-02  0.1123401E+00
          2   -1    0    0  502    0  0.00000000000E+00  0.00000000000E+00  0.11067806893E+03  0.11067806893E+03  0.00000000000E+00 0. -1.
          1   -1    0    0  501    0 -0.00000000000E+00 -0.00000000000E+00 -0.15687617700E+04  0.15687617700E+04  0.00000000000E+00 0. -1.
          2    1    1    2  501    0 -0.18018920545E+03  0.36990910665E+02 -0.10343242026E+04  0.10505536794E+04  0.00000000000E+00 0. -1.
          1    1    1    2  502    0  0.23532263509E+03  0.11040445497E+03 -0.27797095749E+03  0.38057028191E+03  0.00000000000E+00 0. -1.
         22    1    1    2    0    0 -0.51474983379E+02 -0.16907976176E+03 -0.11647167842E+03  0.21166788048E+03  0.00000000000E+00 0. -1.
         22    1    1    2    0    0 -0.36584462594E+01  0.21684396133E+02 -0.29316862622E+02  0.36647997199E+02  0.00000000000E+00 0.  1.
</event>
<event>
 6    1  0.4069520E-005  0.2325123E+03  0.7818608E-02  0.1241708E+00
          2   -1    0    0  502    0  0.00000000000E+00  0.00000000000E+00  0.14970971551E+03  0.14970971551E+03  0.00000000000E+00 0. -1.
          1   -1    0    0  501    0 -0.00000000000E+00 -0.00000000000E+00 -0.12115784354E+04  0.12115784354E+04  0.00000000000E+00 0. -1.
          2    1    1    2  501    0 -0.42090598766E+02  0.35292074513E+02 -0.10202377310E+03  0.11587061451E+03  0.00000000000E+00 0. -1.
          1    1    1    2  502    0 -0.70135502947E+02 -0.29014147194E+02 -0.10499473863E+04  0.10526871917E+04  0.00000000000E+00 0. -1.
         22    1    1    2    0    0 -0.13934179027E+02  0.96799910756E+01  0.59586040065E+02  0.61954497359E+02  0.00000000000E+00 0. -1.
         22    1    1    2    0    0  0.12616028074E+03 -0.15957918395E+02  0.30516399521E+02  0.13077584730E+03  0.00000000000E+00 0. -1.
</event>
<event>
 6    1  0.4069520E-005  0.1217964E+03  0.7818608E-02  0.1286961E+00
          2   -1    0    0  502    0  0.00000000000E+00  0.00000000000E+00  0.32349016183E+02  0.32349016183E+02  0.00000000000E+00 0. -1.
          1   -1    0    0  501    0 -0.00000000000E+00 -0.00000000000E+00 -0.14636652592E+04  0.14636652592E+04  0.00000000000E+00 0.  1.
          2    1    1    2  501    0 -0.16532392882E+02  0.73495187323E+02 -0.37354297923E+03  0.38106327547E+03  0.00000000000E+00 0. -1.
          1    1    1    2  502    0  0.33697874866E+02 -0.91049984711E+02 -0.91580750720E+03  0.92093921446E+03  0.00000000000E+00 0.  1.
         22    1    1    2    0    0 -0.21146605387E+01  0.63964610488E+02 -0.12824906248E+03  0.14333096389E+03  0.00000000000E+00 0. -1.
         22    1    1    2    0    0 -0.15050821445E+02 -0.46409813100E+02 -0.13716694117E+02  0.50680821576E+02  0.00000000000E+00 0. -1.
</event>
<event>
 6    1  0.4069520E-005  0.2048898E+03  0.7818608E-02  0.1230827E+00
          2   -1    0    0  502    0  0.00000000000E+00  0.00000000000E+00  0.32161674711E+02  0.32161674711E+02  0.00000000000E+00 0.  1.
          1   -1    0    0  501    0 -0.00000000000E+00 -0.00000000000E+00 -0.19619116088E+04  0.19619116088E+04  0.00000000000E+00 0. -1.
          2    1    1    2  501    0  0.60115809587E+02 -0.11596333417E+02 -0.25958253480E+03  0.26670485163E+03  0.00000000000E+00 0.  1.
          1    1    1    2  502    0  0.31613092379E+02  0.63438301679E+02 -0.14655498372E+04  0.14672628023E+04  0.00000000000E+00 0. -1.
         22    1    1    2    0    0 -0.85666376243E+02 -0.82212557643E+02 -0.11503153298E+03  0.16531753154E+03  0.00000000000E+00 0.  1.
         22    1    1    2    0    0 -0.60625257230E+01  0.30370589382E+02 -0.89586029146E+02  0.94788098070E+02  0.00000000000E+00 0.  1.
</event>
<event>
 6    1  0.4069520E-005  0.2210119E+03  0.7818608E-02  0.1134339E+00
          2   -1    0    0  502    0  0.00000000000E+00  0.00000000000E+00  0.23817176585E+03  0.23817176585E+03  0.00000000000E+00 0.  1.
          1   -1    0    0  501    0 -0.00000000000E+00 -0.00000000000E+00 -0.48599656287E+03  0.48599656287E+03  0.00000000000E+00 0.  1.
          2    1    1    2  501    0  0.21991336953E+03 -0.12488401656E+01 -0.35877199272E+03  0.42080968675E+03  0.00000000000E+00 0.  1.
          1    1    1    2  502    0 -0.18293304824E+02 -0.28983698064E+02  0.39019019765E+02  0.51934416895E+02  0.00000000000E+00 0.  1.
         22    1    1    2    0    0  0.70415535436E+01 -0.11108510276E+02 -0.16464067579E+02  0.21072446419E+02  0.00000000000E+00 0. -1.
         22    1    1    2    0    0 -0.20866161825E+03  0.41341048505E+02  0.88392243511E+02  0.23035177867E+03  0.00000000000E+00 0.  1.
</event>
<event>
 6    1  0.4069520E-005  0.2569110E+03  0.7818608E-02  0.1228082E+00
          2   -1    0    0  502    0  0.00000000000E+00  0.00000000000E+00  0.85138834283E+02  0.85138834283E+02  0.00000000000E+00 0.  1.
          1   -1    0    0  501    0 -0.00000000000E+00 -0.00000000000E+00 -0.11094641671E+04  0.11094641671E+04  0.00000000000E+00 0.  1.
          2    1    1    2  501    0 -0.10188824107E+03 -0.29837958991E+02 -0.35349138081E+03  0.36909033281E+03  0.00000000000E+00 0.  1.
          1    1    1    2  502    0  0.14672775324E+01  0.80806746848E+02 -0.65420337646E+03  0.65917671455E+03  0.00000000000E+00 0.  1.
         22    1    1    2    0    0  0.85292170114E+02 -0.57864117045E+02 -0.60436886199E+02  0.11948065759E+03  0.00000000000E+00 0.  1.
         22    1    1    2    0    0  0.15128793422E+02  0.68953291877E+01  0.43806310630E+02  0.46855296456E+02  0.00000000000E+00 0.  1.
</event>
<event>
 6    1  0.4069520E-005  0.4208267E+03  0.7818608E-02  0.1144809E+00
          2   -1    0    0  502    0  0.00000000000E+00  0.00000000000E+00  0.11294105519E+04  0.11294105519E+04  0.00000000000E+00 0.  1.
          1   -1    0    0  501    0 -0.00000000000E+00 -0.00000000000E+00 -0.59701288611E+02  0.59701288611E+02  0.00000000000E+00 0.  1.
          2    1    1    2  501    0 -0.92969947504E+02  0.65443045443E+01 -0.24644606481E+01  0.93232572780E+02  0.00000000000E+00 0.  1.
          1    1    1    2  502    0 -0.21575728093E+02 -0.47945724329E+02  0.25328440623E+03  0.25868377406E+03  0.00000000000E+00 0.  1.
         22    1    1    2    0    0 -0.23161506607E+02  0.68126450622E+01  0.52773412445E+02  0.58033615966E+02  0.00000000000E+00 0.  1.
         22    1    1    2    0    0  0.13770718220E+03  0.34588774722E+02  0.76611590523E+03  0.77916187767E+03  0.00000000000E+00 0.  1.
</event>
<event>
 6    1  0.4069520E-005  0.1222923E+03  0.7818608E-02  0.1248349E+00
          2   -1    0    0  502    0  0.00000000000E+00  0.00000000000E+00  0.12972569101E+04  0.12972569101E+04  0.00000000000E+00 0.  1.
          1   -1    0    0  501    0 -0.00000000000E+00 -0.00000000000E+00 -0.23518367439E+02  0.23518367439E+02  0.00000000000E+00 0.  1.
          2    1    1    2  501    0  0.75680616846E+02  0.15365535621E+02  0.15756404487E+03  0.17547103375E+03  0.00000000000E+00 0.  1.
          1    1    1    2  502    0 -0.90252890497E+02 -0.62439300200E+02  0.68950182102E+03  0.69818121691E+03  0.00000000000E+00 0.  1.
         22    1    1    2    0    0  0.23222164852E+02  0.88425442971E+02  0.28984428707E+03  0.30392110596E+03  0.00000000000E+00 0.  1.
         22    1    1    2    0    0 -0.86498912005E+01 -0.41351678392E+02  0.13682838966E+03  0.14320192087E+03  0.00000000000E+00 0.  1.
</event>
<event>
 6    1  0.4069520E-005  0.2309478E+03  0.7818608E-02  0.1159491E+00
          2   -1    0    0  502    0  0.00000000000E+00  0.00000000000E+00  0.69340254903E+03  0.69340254903E+03  0.00000000000E+00 0.  1.
          1   -1    0    0  501    0 -0.00000000000E+00 -0.00000000000E+00 -0.24940500612E+03  0.24940500612E+03  0.00000000000E+00 0. -1.
          2    1    1    2  501    0  0.20583527673E+02 -0.82845754653E+00  0.15257158839E+01  0.20656615462E+02  0.00000000000E+00 0.  1.
          1    1    1    2  502    0 -0.21681085841E+03 -0.38815496128E+02 -0.16158841442E+03  0.27317468173E+03  0.00000000000E+00 0. -1.
         22    1    1    2    0    0  0.92817939292E+02 -0.45312110480E+02  0.27327523571E+03  0.29214330672E+03  0.00000000000E+00 0.  1.
         22    1    1    2    0    0  0.10340939144E+03  0.84956064154E+02  0.33078500573E+03  0.35683295124E+03  0.00000000000E+00 0.  1.
</event>
<event>
 6    1  0.4069520E-005  0.9768213E+02  0.7818608E-02  0.1286632E+00
          2   -1    0    0  502    0  0.00000000000E+00  0.00000000000E+00  0.74217590097E+02  0.74217590097E+02  0.00000000000E+00 0. -1.
          1   -1    0    0  501    0 -0.00000000000E+00 -0.00000000000E+00 -0.34612613919E+03  0.34612613919E+03  0.00000000000E+00 0. -1.
          2    1    1    2  501    0  0.52299971346E+02  0.42960253676E+02 -0.23186960497E+03  0.24154582196E+03  0.00000000000E+00 0. -1.
          1    1    1    2  502    0  0.12344966336E+02  0.18053204385E+02 -0.32658399930E+01  0.22112939498E+02  0.00000000000E+00 0. -1.
         22    1    1    2    0    0 -0.76676596448E+02 -0.60512583304E+02  0.19100514893E+02  0.99528402229E+02  0.00000000000E+00 0. -1.
         22    1    1    2    0    0  0.12031658766E+02 -0.50087475606E+00 -0.55873619019E+02  0.57156565593E+02  0.00000000000E+00 0. -1.
</event>
<event>
 6    1  0.4069520E-005  0.1436244E+03  0.7818608E-02  0.1275294E+00
          2   -1    0    0  502    0  0.00000000000E+00  0.00000000000E+00  0.40343229833E+03  0.40343229833E+03  0.00000000000E+00 0. -1.
          1   -1    0    0  501    0 -0.00000000000E+00 -0.00000000000E+00 -0.15030957187E+03  0.15030957187E+03  0.00000000000E+00 0.  1.
          2    1    1    2  501    0  0.35714860789E+02 -0.38562676636E+02  0.46999697680E+02  0.70509594329E+02  0.00000000000E+00 0. -1.
          1    1    1    2  502    0  0.12381702215E+02  0.20460181393E+02 -0.12393875665E+03  0.12622496176E+03  0.00000000000E+00 0.  1.
         22    1    1    2    0    0 -0.79048078124E+02  0.38683643289E+02  0.15685261022E+03  0.17985484216E+03  0.00000000000E+00 0. -1.
         22    1    1    2    0    0  0.30951515120E+02 -0.20581148046E+02  0.17320917521E+03  0.17715247195E+03  0.00000000000E+00 0. -1.
</event>
<event>
 6    1  0.4069520E-005  0.8259398E+02  0.7818608E-02  0.1327986E+00
          2   -1    0    0  502    0  0.00000000000E+00  0.00000000000E+00  0.78994504416E+03  0.78994504416E+03  0.00000000000E+00 0.  1.
          1   -1    0    0  501    0 -0.00000000000E+00 -0.00000000000E+00 -0.24453857962E+04  0.24453857962E+04  0.00000000000E+00 0. -1.
          2    1    1    2  501    0  0.30889334424E+02  0.14659397234E+02  0.17891981624E+03  0.18215748557E+03  0.00000000000E+00 0.  1.
          1    1    1    2  502    0 -0.35041217475E+02  0.10315910710E+02 -0.24370488155E+04  0.24373225544E+04  0.00000000000E+00 0. -1.
         22    1    1    2    0    0 -0.80595319173E+01 -0.74769656859E+02  0.37400803289E+03  0.38149373036E+03  0.00000000000E+00 0.  1.
         22    1    1    2    0    0  0.12211414968E+02  0.49794348915E+02  0.22868021435E+03  0.23435707004E+03  0.00000000000E+00 0.  1.
</event>
<event>
 6    1  0.4069520E-005  0.6402390E+02  0.7818608E-02  0.1388819E+00
          2   -1    0    0  502    0  0.00000000000E+00  0.00000000000E+00  0.37320925759E+03  0.37320925759E+03  0.00000000000E+00 0. -1.
          1   -1    0    0  501    0 -0.00000000000E+00 -0.00000000000E+00 -0.21673602216E+03  0.21673602216E+03  0.00000000000E+00 0.  1.
          2    1    1    2  501    0  0.51042544177E+02  0.51287705792E+02  0.33847182174E+02  0.79883676821E+02  0.00000000000E+00 0. -1.
          1    1    1    2  502    0 -0.57399367389E+02 -0.11049733108E+02 -0.17425319518E+03  0.18379597387E+03  0.00000000000E+00 0.  1.
         22    1    1    2    0    0 -0.23646542528E+02 -0.51906905540E+02  0.28696801063E+03  0.29258182606E+03  0.00000000000E+00 0. -1.
         22    1    1    2    0    0  0.30003365740E+02  0.11668932857E+02  0.99112378017E+01  0.33683803000E+02  0.00000000000E+00 0.  1.
</event>
<event>
 6    1  0.4069520E-005  0.4575389E+02  0.7818608E-02  0.1569635E+00
          2   -1    0    0  502    0  0.00000000000E+00  0.00000000000E+00  0.30243807775E+02  0.30243807775E+02  0.00000000000E+00 0.  1.
          1   -1    0    0  501    0 -0.00000000000E+00 -0.00000000000E+00 -0.76573999803E+03  0.76573999803E+03  0.00000000000E+00 0.  1.
          2    1    1    2  501    0  0.24957346614E+02 -0.98562212822E+01 -0.97556667793E+02  0.10117963075E+03  0.00000000000E+00 0.  1.
          1    1    1    2  502    0 -0.20769191111E+02  0.23406869907E+02 -0.53191865670E+03  0.53283834153E+03  0.00000000000E+00 0.  1.
         22    1    1    2    0    0 -0.16370555083E+01 -0.25272428584E+02 -0.13144031898E+03  0.13385788379E+03  0.00000000000E+00 0.  1.
         22    1    1    2    0    0 -0.25510999948E+01  0.11721779958E+02  0.25419453220E+02  0.28107949740E+02  0.00000000000E+00 0.  1.
</event>
<event>
 6    1  0.4069520E-005  0.6748619E+02  0.7818608E-02  0.1370973E+00
          2   -1    0    0  502    0  0.00000000000E+00  0.00000000000E+00  0.33795749146E+03  0.33795749146E+03  0.00000000000E+00 0. -1.
          1   -1    0    0  501    0 -0.00000000000E+00 -0.00000000000E+00 -0.29738927810E+03  0.29738927810E+03  0.00000000000E+00 0.  1.
          2    1    1    2  501    0  0.51696522250E+01  0.50719511215E+02  0.20539463997E+03  0.21162739012E+03  0.00000000000E+00 0. -1.
          1    1    1    2  502    0 -0.29879999675E+02  0.11467586108E+01 -0.25718858333E+03  0.25892102431E+03  0.00000000000E+00 0.  1.
         22    1    1    2    0    0  0.30902115170E+02 -0.66082636242E+02  0.18572224151E+01  0.72974686089E+02  0.00000000000E+00 0.  1.
         22    1    1    2    0    0 -0.61917677205E+01  0.14216366416E+02  0.90504934308E+02  0.91823669038E+02  0.00000000000E+00 0.  1.
</event>
<event>
 6    1  0.4069520E-005  0.2435476E+03  0.7818608E-02  0.1137888E+00
          2   -1    0    0  502    0  0.00000000000E+00  0.00000000000E+00  0.32685802739E+03  0.32685802739E+03  0.00000000000E+00 0.  1.
          1   -1    0    0  501    0 -0.00000000000E+00 -0.00000000000E+00 -0.43319268441E+03  0.43319268441E+03  0.00000000000E+00 0.  1.
          2    1    1    2  501    0 -0.19771165365E+03  0.13569969120E+03  0.11593817985E+03  0.26635683908E+03  0.00000000000E+00 0.  1.
          1    1    1    2  502    0  0.23914847261E+03  0.89472266972E+01 -0.16259067934E+03  0.28932295766E+03  0.00000000000E+00 0.  1.
         22    1    1    2    0    0 -0.24248336700E+02 -0.14510941585E+03 -0.87861107757E+02  0.17136014314E+03  0.00000000000E+00 0. -1.
         22    1    1    2    0    0 -0.17188482266E+02  0.46249795900E+00  0.28178950224E+02  0.33010771919E+02  0.00000000000E+00 0. -1.
</event>
<event>
 6    1  0.4069520E-005  0.7348578E+02  0.7818608E-02  0.1355716E+00
          2   -1    0    0  502    0  0.00000000000E+00  0.00000000000E+00  0.20984924768E+03  0.20984924768E+03  0.00000000000E+00 0.  1.
          1   -1    0    0  501    0 -0.00000000000E+00 -0.00000000000E+00 -0.82325595735E+02  0.82325595735E+02  0.00000000000E+00 0.  1.
          2    1    1    2  501    0  0.56080970954E+01 -0.38748739817E+02 -0.22880656169E+02  0.45347988017E+02  0.00000000000E+00 0.  1.
          1    1    1    2  502    0 -0.59023188162E+02  0.15483953231E+02  0.42838702363E+02  0.74556314076E+02  0.00000000000E+00 0.  1.
         22    1    1    2    0    0  0.29202608031E+02 -0.37721972266E+02  0.17199845543E+01  0.47735708378E+02  0.00000000000E+00 0.  1.
         22    1    1    2    0    0  0.24212483035E+02  0.60986758852E+02  0.10584562120E+03  0.12453483294E+03  0.00000000000E+00 0. -1.
</event>
<event>
 6    1  0.4069520E-005  0.5985595E+02  0.7818608E-02  0.1416647E+00
          2   -1    0    0  502    0  0.00000000000E+00  0.00000000000E+00  0.35007184256E+03  0.35007184256E+03  0.00000000000E+00 0.  1.
          1   -1    0    0  501    0 -0.00000000000E+00 -0.00000000000E+00 -0.11600056979E+03  0.11600056979E+03  0.00000000000E+00 0. -1.
          2    1    1    2  501    0  0.33570671505E+02  0.27564632426E+02  0.19186799242E+02  0.47486126513E+02  0.00000000000E+00 0.  1.
          1    1    1    2  502    0 -0.44754974388E+02 -0.11579940057E+02 -0.82336116307E+02  0.94426367042E+02  0.00000000000E+00 0. -1.
         22    1    1    2    0    0 -0.40591389570E+02 -0.19431560506E+02  0.24994207448E+03  0.25396119201E+03  0.00000000000E+00 0.  1.
         22    1    1    2    0    0  0.51775692453E+02  0.34468681373E+01  0.47278515349E+02  0.70198726787E+02  0.00000000000E+00 0.  1.
</event>
<event>
 6    1  0.4069520E-005  0.1323634E+03  0.7818608E-02  0.1280776E+00
          2   -1    0    0  502    0  0.00000000000E+00  0.00000000000E+00  0.15334378870E+03  0.15334378870E+03  0.00000000000E+00 0. -1.
          1   -1    0    0  501    0 -0.00000000000E+00 -0.00000000000E+00 -0.24061086631E+03  0.24061086631E+03  0.00000000000E+00 0. -1.
          2    1    1    2  501    0  0.29272481329E+02 -0.27355998383E+02 -0.19282025264E+03  0.19693876875E+03  0.00000000000E+00 0. -1.
          1    1    1    2  502    0 -0.18581315681E+02  0.21533355045E+02  0.61708337844E+02  0.67947550591E+02  0.00000000000E+00 0. -1.
         22    1    1    2    0    0  0.36447665904E+02  0.22528914785E+02  0.62425910385E+02  0.75716435723E+02  0.00000000000E+00 0.  1.
         22    1    1    2    0    0 -0.47138831551E+02 -0.16706271447E+02 -0.18581073200E+02  0.53351899937E+02  0.00000000000E+00 0. -1.
</event>
<event>
 6    1  0.4069520E-005  0.9508470E+02  0.7818608E-02  0.1300516E+00
          2   -1    0    0  502    0  0.00000000000E+00  0.00000000000E+00  0.55423596626E+03  0.55423596626E+03  0.00000000000E+00 0.  1.
          1   -1    0    0  501    0 -0.00000000000E+00 -0.00000000000E+00 -0.12182372656E+04  0.12182372656E+04  0.00000000000E+00 0. -1.
          2    1    1    2  501    0  0.37031468898E+02 -0.25986611562E+02  0.31717859600E+02  0.55250848743E+02  0.00000000000E+00 0.  1.
          1    1    1    2  502    0 -0.10112939305E+01  0.28679125797E+02 -0.11978728294E+04  0.11982165207E+04  0.00000000000E+00 0. -1.
         22    1    1    2    0    0  0.43450947627E+02  0.33026396318E+01  0.10079895523E+03  0.10981494276E+03  0.00000000000E+00 0.  1.
         22    1    1    2    0    0 -0.79471122594E+02 -0.59951538673E+01  0.40135471531E+03  0.40919091962E+03  0.00000000000E+00 0.  1.
</event>
<event>
 6    1  0.4069520E-005  0.2074540E+03  0.7818608E-02  0.1222674E+00
          2   -1    0    0  502    0  0.00000000000E+00  0.00000000000E+00  0.62158245318E+02  0.62158245318E+02  0.00000000000E+00 0. -1.
          1   -1    0    0  501    0 -0.00000000000E+00 -0.00000000000E+00 -0.75792761891E+03  0.75792761891E+03  0.00000000000E+00 0. -1.
          2    1    1    2  501    0 -0.73886229612E+02 -0.48446125973E+02 -0.18260615966E+03  0.20285761409E+03  0.00000000000E+00 0. -1.
          1    1    1    2  502    0  0.11764415066E+02  0.78540399221E+02 -0.45351673435E+03  0.46041766268E+03  0.00000000000E+00 0. -1.
         22    1    1    2    0    0 -0.33589601045E+02  0.10979282526E+02  0.26697553958E+01  0.35439152600E+02  0.00000000000E+00 0.  1.
         22    1    1    2    0    0  0.95711415591E+02 -0.41073555774E+02 -0.62316234978E+02  0.12137143486E+03  0.00000000000E+00 0. -1.
</event>
<event>
 6    1  0.4069520E-005  0.1219514E+03  0.7818608E-02  0.1342855E+00
          2   -1    0    0  502    0  0.00000000000E+00  0.00000000000E+00  0.23430159638E+03  0.23430159638E+03  0.00000000000E+00 0.  1.
          1   -1    0    0  501    0 -0.00000000000E+00 -0.00000000000E+00 -0.11402026889E+03  0.11402026889E+03  0.00000000000E+00 0. -1.
          2    1    1    2  501    0 -0.10207213635E+01 -0.30041351353E+02 -0.67807204581E+01  0.30814003848E+02  0.00000000000E+00 0.  1.
          1    1    1    2  502    0 -0.25912832456E+02  0.11165655966E+03 -0.41619654847E+01  0.11469953861E+03  0.00000000000E+00 0. -1.
         22    1    1    2    0    0  0.13414563984E+02  0.11629581594E+02  0.10290430721E+03  0.10442458588E+03  0.00000000000E+00 0.  1.
         22    1    1    2    0    0  0.13518989836E+02 -0.93244789903E+02  0.28319706229E+02  0.98383736924E+02  0.00000000000E+00 0.  1.
</event>
<event>
 6    1  0.4069520E-005  0.1105640E+03  0.7818608E-02  0.1292447E+00
          2   -1    0    0  502    0  0.00000000000E+00  0.00000000000E+00  0.46876969714E+02  0.46876969714E+02  0.00000000000E+00 0. -1.
          1   -1    0    0  501    0 -0.00000000000E+00 -0.00000000000E+00 -0.60378164470E+03  0.60378164470E+03  0.00000000000E+00 0.  1.
          2    1    1    2  501    0  0.18568114479E+02 -0.13714444187E+02  0.11771245990E+02  0.25911832950E+02  0.00000000000E+00 0. -1.
          1    1    1    2  502    0 -0.52174814850E+02 -0.28259680600E+02 -0.41239682047E+03  0.41664368276E+03  0.00000000000E+00 0.  1.
         22    1    1    2    0    0  0.24181822061E+02 -0.23680744455E+02 -0.13388492614E+03  0.13809674733E+03  0.00000000000E+00 0.  1.
         22    1    1    2    0    0  0.94248783107E+01  0.65654869242E+02 -0.22394174366E+02  0.70006351369E+02  0.00000000000E+00 0. -1.
</event>
<event>
 6    1  0.4069520E-005  0.7879197E+02  0.7818608E-02  0.1341598E+00
          2   -1    0    0  502    0  0.00000000000E+00  0.00000000000E+00  0.27567836900E+02  0.27567836900E+02  0.00000000000E+00 0. -1.
          1   -1    0    0  501    0 -0.00000000000E+00 -0.00000000000E+00 -0.14789631671E+04  0.14789631671E+04  0.00000000000E+00 0.  1.
          2    1    1    2  501    0  0.11911994617E+02 -0.89071181582E+02 -0.14887118527E+03  0.17389134771E+03  0.00000000000E+00 0. -1.
          1    1    1    2  502    0 -0.30108500131E+02  0.61171566095E+02 -0.10228784348E+04  0.10251481721E+04  0.00000000000E+00 0.  1.
         22    1    1    2    0    0  0.14118557778E+02  0.65773294362E+02 -0.25092153433E+03  0.25978274830E+03  0.00000000000E+00 0.  1.
         22    1    1    2    0    0  0.40779477359E+01 -0.37873678875E+02 -0.28724175794E+02  0.47708735933E+02  0.00000000000E+00 0. -1.
</event>
<event>
 6    1  0.4069520E-005  0.3088118E+02  0.7818608E-02  0.1594290E+00
          2   -1    0    0  502    0  0.00000000000E+00  0.00000000000E+00  0.82129348876E+02  0.82129348876E+02  0.00000000000E+00 0.  1.
          1   -1    0    0  501    0 -0.00000000000E+00 -0.00000000000E+00 -0.27943755655E+03  0.27943755655E+03  0.00000000000E+00 0.  1.
          2    1    1    2  501    0 -0.23636540022E+02  0.22623818440E+02 -0.14820854941E+03  0.15177713037E+03  0.00000000000E+00 0.  1.
          1    1    1    2  502    0  0.50319281747E+01 -0.25913388481E+02 -0.73552067694E+02  0.78145573552E+02  0.00000000000E+00 0.  1.
         22    1    1    2    0    0 -0.10091393129E+02  0.15208482117E+01 -0.50419525272E+02  0.51441984052E+02  0.00000000000E+00 0. -1.
         22    1    1    2    0    0  0.28696004977E+02  0.17687218296E+01  0.74871934701E+02  0.80202217453E+02  0.00000000000E+00 0.  1.
</event>
<event>
 6    1  0.4069520E-005  0.9985759E+02  0.7818608E-02  0.1372359E+00
          2   -1    0    0  502    0  0.00000000000E+00  0.00000000000E+00  0.25503875266E+02  0.25503875266E+02  0.00000000000E+00 0. -1.
          1   -1    0    0  501    0 -0.00000000000E+00 -0.00000000000E+00 -0.64312168681E+03  0.64312168681E+03  0.00000000000E+00 0.  1.
          2    1    1    2  501    0 -0.38870979253E+02 -0.19438584386E-01 -0.68348710777E+02  0.78628873010E+02  0.00000000000E+00 0. -1.
          1    1    1    2  502    0  0.74074254429E+01  0.23708978302E+02 -0.34552669790E+03  0.34641836638E+03  0.00000000000E+00 0.  1.
         22    1    1    2    0    0  0.50475775640E+02 -0.18690263676E+02 -0.21451292766E+03  0.22116266868E+03  0.00000000000E+00 0.  1.
         22    1    1    2    0    0 -0.19012221830E+02 -0.49992760409E+01  0.10770524801E+02  0.22415654002E+02  0.00000000000E+00 0. -1.
</event>
<event>
 6    1  0.4069520E-005  0.1428266E+03  0.7818608E-02  0.1286618E+00
          2   -1    0    0  502    0  0.00000000000E+00  0.00000000000E+00  0.14793932410E+03  0.14793932410E+03  0.00000000000E+00 0.  1.
          1   -1    0    0  501    0 -0.00000000000E+00 -0.00000000000E+00 -0.37738331869E+03  0.37738331869E+03  0.00000000000E+00 0.  1.
          2    1    1    2  501    0  0.56237978274E+02  0.17547839401E+02  0.32486805471E+02  0.67275771253E+02  0.00000000000E+00 0.  1.
          1    1    1    2  502    0 -0.83370700050E+01 -0.18664612246E+02 -0.31080324271E+03  0.31147476650E+03  0.00000000000E+00 0.  1.
         22    1    1    2    0    0  0.20072200530E+02  0.24298129616E+02  0.65648194908E+02  0.72821547852E+02  0.00000000000E+00 0.  1.
         22    1    1    2    0    0 -0.67973108799E+02 -0.23181356771E+02 -0.16775752252E+02  0.73750557185E+02  0.00000000000E+00 0.  1.
</event>
<event>
 6    1  0.4069520E-005  0.6924148E+02  0.7818608E-02  0.1376720E+00
          2   -1    0    0  502    0  0.00000000000E+00  0.00000000000E+00  0.17284690135E+03  0.17284690135E+03  0.00000000000E+00 0. -1.
          1   -1    0    0  501    0 -0.00000000000E+00 -0.00000000000E+00 -0.40712092364E+03  0.40712092364E+03  0.00000000000E+00 0. -1.
          2    1    1    2  501    0 -0.39457559872E+01 -0.44966848174E+02 -0.25927134065E+03  0.26317145458E+03  0.00000000000E+00 0. -1.
          1    1    1    2  502    0  0.64128023887E+02  0.10910458742E+03 -0.64921171731E+02  0.14223562488E+03  0.00000000000E+00 0. -1.
         22    1    1    2    0    0 -0.54541070710E+02 -0.55441366131E+02  0.11985718278E+03  0.14287833193E+03  0.00000000000E+00 0. -1.
         22    1    1    2    0    0 -0.56411971904E+01 -0.86963731191E+01 -0.29938692685E+02  0.31682413589E+02  0.00000000000E+00 0.  1.
</event>
<event>
 6    1  0.4069520E-005  0.8265824E+02  0.7818608E-02  0.1326234E+00
          2   -1    0    0  502    0  0.00000000000E+00  0.00000000000E+00  0.13898527394E+03  0.13898527394E+03  0.00000000000E+00 0.  1.
          1   -1    0    0  501    0 -0.00000000000E+00 -0.00000000000E+00 -0.66368593830E+03  0.66368593830E+03  0.00000000000E+00 0.  1.
          2    1    1    2  501    0  0.54908529415E+02  0.35480051701E+02 -0.16326431755E+02  0.67381993479E+02  0.00000000000E+00 0.  1.
          1    1    1    2  502    0 -0.43526752065E+02 -0.10125256841E+02 -0.58547540827E+03  0.58717846747E+03  0.00000000000E+00 0.  1.
         22    1    1    2    0    0 -0.29878205360E+02 -0.64448376200E+02  0.77134979838E+02  0.10486231671E+03  0.00000000000E+00 0. -1.
         22    1    1    2    0    0  0.18496428009E+02  0.39093581340E+02 -0.33804172137E-01  0.43248434582E+02  0.00000000000E+00 0.  1.
</event>
<event>
 6    1  0.4069520E-005  0.3988479E+03  0.7818608E-02  0.1121775E+00
          2   -1    0    0  502    0  0.00000000000E+00  0.00000000000E+00  0.12056473269E+03  0.12056473269E+03  0.00000000000E+00 0. -1.
          1   -1    0    0  501    0 -0.00000000000E+00 -0.00000000000E+00 -0.11443468695E+04  0.11443468695E+04  0.00000000000E+00 0. -1.
          2    1    1    2  501    0  0.13302956727E+03 -0.29985492400E+02 -0.51843138970E+03  0.53606632178E+03  0.00000000000E+00 0. -1.
          1    1    1    2  502    0 -0.27631008076E+03 -0.50184789288E+02 -0.41982635019E+03  0.50509398940E+03  0.00000000000E+00 0. -1.
         22    1    1    2    0    0  0.36619021422E+02 -0.33699701750E+02 -0.11589967564E+02  0.51097455671E+02  0.00000000000E+00 0. -1.
         22    1    1    2    0    0  0.10666149208E+03  0.11386998344E+03 -0.73934429369E+02  0.17265383537E+03  0.00000000000E+00 0. -1.
</event>
<event>
 6    1  0.4069520E-005  0.9152856E+02  0.7818608E-02  0.1300282E+00
          2   -1    0    0  502    0  0.00000000000E+00  0.00000000000E+00  0.29359359896E+03  0.29359359896E+03  0.00000000000E+00 0.  1.
          1   -1    0    0  501    0 -0.00000000000E+00 -0.00000000000E+00 -0.44754020575E+03  0.44754020575E+03  0.00000000000E+00 0. -1.
          2    1    1    2  501    0  0.46621577908E+02  0.13133126085E+02  0.76965445715E+02  0.90938057828E+02  0.00000000000E+00 0.  1.
          1    1    1    2  502    0  0.20299398577E+02  0.82803172858E+01 -0.41619100015E+03  0.41676801442E+03  0.00000000000E+00 0. -1.
         22    1    1    2    0    0  0.27484117501E+02  0.21688625510E+02  0.70326593609E+02  0.78559550406E+02  0.00000000000E+00 0.  1.
         22    1    1    2    0    0 -0.94405093986E+02 -0.43102068881E+02  0.11495235404E+03  0.15486818205E+03  0.00000000000E+00 0.  1.
</event>
<event>
 6    1  0.4069520E-005  0.7231088E+02  0.7818608E-02  0.1391429E+00
          2   -1    0    0  502    0  0.00000000000E+00  0.00000000000E+00  0.35776544776E+02  0.35776544776E+02  0.00000000000E+00 0.  1.
          1   -1    0    0  501    0 -0.00000000000E+00 -0.00000000000E+00 -0.42431268297E+03  0.42431268297E+03  0.00000000000E+00 0.  1.
          2    1    1    2  501    0 -0.19846179493E+02  0.21693650870E+02 -0.13194749683E+03  0.13518367967E+03  0.00000000000E+00 0.  1.
          1    1    1    2  502    0 -0.36188088463E+02  0.35772097137E+01 -0.13562835500E+03  0.14041874824E+03  0.00000000000E+00 0.  1.
         22    1    1    2    0    0  0.16522035565E+02 -0.28021464103E+02 -0.13769751861E+03  0.14148776181E+03  0.00000000000E+00 0.  1.
         22    1    1    2    0    0  0.39512232391E+02  0.27506035192E+01  0.16737232251E+02  0.42999038032E+02  0.00000000000E+00 0.  1.
</event>
<event>
 6    1  0.4069520E-005  0.1086479E+03  0.7818608E-02  0.1346550E+00
          2   -1    0    0  502    0  0.00000000000E+00  0.00000000000E+00  0.46486292562E+02  0.46486292562E+02  0.00000000000E+00 0. -1.
          1   -1    0    0  501    0 -0.00000000000E+00 -0.00000000000E+00 -0.80191544041E+03  0.80191544041E+03  0.00000000000E+00 0. -1.
          2    1    1    2  501    0  0.24817436841E+02 -0.39754153253E+02 -0.40166697385E+02  0.61722454998E+02  0.00000000000E+00 0. -1.
          1    1    1    2  502    0 -0.20618970938E+02  0.86142265843E+02 -0.60598863235E+03  0.61242783613E+03  0.00000000000E+00 0. -1.
         22    1    1    2    0    0 -0.10702257928E+02 -0.23742939060E+02 -0.13608756861E+03  0.13855717884E+03  0.00000000000E+00 0.  1.
         22    1    1    2    0    0  0.65037920251E+01 -0.22645173530E+02  0.26813750500E+02  0.35694262996E+02  0.00000000000E+00 0. -1.
</event>
<event>
 6    1  0.4069520E-005  0.1927261E+03  0.7818608E-02  0.1285648E+00
          2   -1    0    0  502    0  0.00000000000E+00  0.00000000000E+00  0.10239108057E+03  0.10239108057E+03  0.00000000000E+00 0. -1.
          1   -1    0    0  501    0 -0.00000000000E+00 -0.00000000000E+00 -0.17761474434E+04  0.17761474434E+04  0.00000000000E+00 0. -1.
          2    1    1    2  501    0  0.92628648973E+02  0.31136060150E+02 -0.28543033210E+02  0.10180484073E+03  0.00000000000E+00 0. -1.
          1    1    1    2  502    0 -0.16742701649E+02 -0.56545178988E+02 -0.16240141531E+04  0.16250845039E+04  0.00000000000E+00 0. -1.
         22    1    1    2    0    0 -0.88257852641E+02  0.27912680806E+02 -0.60357891943E+02  0.11050629585E+03  0.00000000000E+00 0.  1.
         22    1    1    2    0    0  0.12371905316E+02 -0.25035619677E+01  0.39158715451E+02  0.41142883461E+02  0.00000000000E+00 0. -1.
</event>
<event>
 6    1  0.4069520E-005  0.1172405E+03  0.7818608E-02  0.1347784E+00
          2   -1    0    0  502    0  0.00000000000E+00  0.00000000000E+00  0.91866980548E+02  0.91866980548E+02  0.00000000000E+00 0. -1.
          1   -1    0    0  501    0 -0.00000000000E+00 -0.00000000000E+00 -0.34368243124E+03  0.34368243124E+03  0.00000000000E+00 0. -1.
          2    1    1    2  501    0  0.61936030517E+02  0.62535511910E+02 -0.16131992093E+03  0.18376854740E+03  0.00000000000E+00 0. -1.
          1    1    1    2  502    0 -0.68643350216E+02 -0.78192053852E+02 -0.74832131971E+02  0.12816300086E+03  0.00000000000E+00 0. -1.
         22    1    1    2    0    0  0.10511949975E+02  0.33616190178E+02 -0.63370282793E+02  0.72500635001E+02  0.00000000000E+00 0. -1.
         22    1    1    2    0    0 -0.38046302755E+01 -0.17959648236E+02  0.47706884996E+02  0.51117228527E+02  0.00000000000E+00 0. -1.
</event>
<event>
 6    1  0.4069520E-005  0.3481900E+03  0.7818608E-02  0.1155410E+00
          2   -1    0    0  502    0  0.00000000000E+00  0.00000000000E+00  0.81371770284E+03  0.81371770284E+03  0.00000000000E+00 0. -1.
          1   -1    0    0  501    0 -0.00000000000E+00 -0.00000000000E+00 -0.15050949764E+03  0.15050949764E+03  0.00000000000E+00 0. -1.
          2    1    1    2  501    0  0.88767628289E+02 -0.23193201006E+03  0.58707769541E+02  0.25518375992E+03  0.00000000000E+00 0. -1.
          1    1    1    2  502    0 -0.37319285433E+02  0.23093873892E+03  0.32577927880E+03  0.40107052833E+03  0.00000000000E+00 0. -1.
         22    1    1    2    0    0  0.15803276266E+02 -0.29148959984E+02  0.18889537432E+03  0.19178338783E+03  0.00000000000E+00 0.  1.
         22    1    1    2    0    0 -0.67251619121E+02  0.30142231121E+02  0.89825782538E+02  0.11618952440E+03  0.00000000000E+00 0. -1.
</event>
<event>
 6    1  0.4069520E-005  0.1066650E+03  0.7818608E-02  0.1272168E+00
          2   -1    0    0  502    0  0.00000000000E+00  0.00000000000E+00  0.23529354155E+02  0.23529354155E+02  0.00000000000E+00 0.  1.
          1   -1    0    0  501    0 -0.00000000000E+00 -0.00000000000E+00 -0.88232489958E+03  0.88232489958E+03  0.00000000000E+00 0.  1.
          2    1    1    2  501    0  0.82925510131E+02  0.10196728048E+02 -0.21824657196E+03  0.23369248954E+03  0.00000000000E+00 0.  1.
          1    1    1    2  502    0 -0.62516025383E+02 -0.23204269238E+02 -0.13262446568E+03  0.14844507549E+03  0.00000000000E+00 0.  1.
         22    1    1    2    0    0  0.43770994912E+02  0.38228152187E+02 -0.20791599135E+03  0.21588504134E+03  0.00000000000E+00 0.  1.
         22    1    1    2    0    0 -0.64180479660E+02 -0.25220610998E+02 -0.30000851643E+03  0.30783164737E+03  0.00000000000E+00 0. -1.
</event>
<event>
 6    1  0.4069520E-005  0.7711698E+02  0.7818608E-02  0.1347909E+00
          2   -1    0    0  502    0  0.00000000000E+00  0.00000000000E+00  0.42239739024E+03  0.42239739024E+03  0.00000000000E+00 0. -1.
          1   -1    0    0  501    0 -0.00000000000E+00 -0.00000000000E+00 -0.21489255541E+04  0.21489255541E+04  0.00000000000E+00 0. -1.
          2    1    1    2  501    0 -0.77829089641E+02  0.11704366264E+02  0.15893234087E+03  0.17735232831E+03  0.00000000000E+00 0. -1.
          1    1    1    2  502    0  0.71667904358E+02 -0.82289083781E+01 -0.21243721452E+04  0.21255966256E+04  0.00000000000E+00 0. -1.
         22    1    1    2    0    0  0.55127881778E+02 -0.33234078902E+02  0.11327308298E+03  0.13028575777E+03  0.00000000000E+00 0. -1.
         22    1    1    2    0    0 -0.48966696495E+02  0.29758621016E+02  0.12563855745E+03  0.13808823270E+03  0.00000000000E+00 0. -1.
</event>
<event>
 6    1  0.4069520E-005  0.1820482E+03  0.7818608E-02  0.1229813E+00
          2   -1    0    0  502    0  0.00000000000E+00  0.00000000000E+00  0.10217092889E+03  0.10217092889E+03  0.00000000000E+00 0.  1.
          1   -1    0    0  501    0 -0.00000000000E+00 -0.00000000000E+00 -0.13330273960E+04  0.13330273960E+04  0.00000000000E+00 0.  1.
          2    1    1    2  501    0 -0.58046474150E+02  0.23851796274E+02  0.57045712322E+01  0.63014629093E+02  0.00000000000E+00 0.  1.
          1    1    1    2  502    0  0.14993456603E+03 -0.80121895314E+02 -0.11877674737E+04  0.11998714363E+04  0.00000000000E+00 0.  1.
         22    1    1    2    0    0 -0.87947949013E+02  0.11358189467E+02 -0.78408409731E+02  0.11837114902E+03  0.00000000000E+00 0.  1.
         22    1    1    2    0    0 -0.39401428681E+01  0.44911909573E+02  0.29614845073E+02  0.53941110445E+02  0.00000000000E+00 0.  1.
</event>
<event>
 6    1  0.4069520E-005  0.9690538E+02  0.7818608E-02  0.1329419E+00
          2   -1    0    0  502    0  0.00000000000E+00  0.00000000000E+00  0.18269707069E+03  0.18269707069E+03  0.00000000000E+00 0. -1.
          1   -1    0    0  501    0 -0.00000000000E+00 -0.00000000000E+00 -0.11227175317E+03  0.11227175317E+03  0.00000000000E+00 0. -1.
          2    1    1    2  501    0  0.21715329011E+02 -0.56799622799E+02 -0.34120162377E+02  0.69727599592E+02  0.00000000000E+00 0. -1.
          1    1    1    2  502    0 -0.21918477921E+02  0.66248570442E+02  0.12218530070E+02  0.70841973695E+02  0.00000000000E+00 0. -1.
         22    1    1    2    0    0  0.44446177738E+02 -0.15963440671E+02 -0.48022529415E+01  0.47469524822E+02  0.00000000000E+00 0. -1.
         22    1    1    2    0    0 -0.44243028827E+02  0.65144930282E+01  0.97129202772E+02  0.10692972576E+03  0.00000000000E+00 0. -1.
</event>
<event>
 6    1  0.4069520E-005  0.7524314E+02  0.7818608E-02  0.1365704E+00
          2   -1    0    0  502    0  0.00000000000E+00  0.00000000000E+00  0.39012124646E+03  0.39012124646E+03  0.00000000000E+00 0. -1.
          1   -1    0    0  501    0 -0.00000000000E+00 -0.00000000000E+00 -0.42645774710E+02  0.42645774710E+02  0.00000000000E+00 0. -1.
          2    1    1    2  501    0  0.27718080261E+02 -0.12359932893E+02  0.43961822969E+02  0.53420050480E+02  0.00000000000E+00 0. -1.
          1    1    1    2  502    0 -0.38470568833E+02 -0.12486965695E+02 -0.10641409105E+02  0.41822823510E+02  0.00000000000E+00 0. -1.
         22    1    1    2    0    0  0.46586790529E+02  0.52165308950E+02  0.12662235034E+03  0.14465395991E+03  0.00000000000E+00 0. -1.
         22    1    1    2    0    0 -0.35834301957E+02 -0.27318410362E+02  0.18753270754E+03  0.19287018727E+03  0.00000000000E+00 0. -1.
</event>
<event>
 6    1  0.4069520E-005  0.7332945E+02  0.7818608E-02  0.1392508E+00
          2   -1    0    0  502    0  0.00000000000E+00  0.00000000000E+00  0.21106518119E+03  0.21106518119E+03  0.00000000000E+00 0. -1.
          1   -1    0    0  501    0 -0.00000000000E+00 -0.00000000000E+00 -0.54985105030E+02  0.54985105030E+02  0.00000000000E+00 0. -1.
          2    1    1    2  501    0  0.29787404831E+02  0.14612539816E+02  0.53406671200E+01  0.33605632440E+02  0.00000000000E+00 0. -1.
          1    1    1    2  502    0 -0.33588342571E+02 -0.39990284120E+02  0.49718026678E+02  0.72106045221E+02  0.00000000000E+00 0. -1.
         22    1    1    2    0    0 -0.31952312616E+02 -0.16102538432E+02  0.99299561307E+02  0.10554925344E+03  0.00000000000E+00 0. -1.
         22    1    1    2    0    0  0.35753250356E+02  0.41480282736E+02  0.17218210562E+01  0.54789355121E+02  0.00000000000E+00 0. -1.
</event>
<event>
 6    1  0.4069520E-005  0.1027036E+03  0.7818608E-02  0.1289606E+00
          2   -1    0    0  502    0  0.00000000000E+00  0.00000000000E+00  0.60873640817E+02  0.60873640817E+02  0.00000000000E+00 0. -1.
          1   -1    0    0  501    0 -0.00000000000E+00 -0.00000000000E+00 -0.19463197257E+03  0.19463197257E+03  0.00000000000E+00 0. -1.
          2    1    1    2  501    0  0.89651530760E+01  0.45103092396E+02 -0.42598888232E+02  0.62684353645E+02  0.00000000000E+00 0. -1.
          1    1    1    2  502    0  0.21043302423E+02 -0.58504643983E+01  0.68455383142E+01  0.22889078298E+02  0.00000000000E+00 0. -1.
         22    1    1    2    0    0 -0.48627318645E+02  0.29062287013E+02 -0.10918053371E+02  0.57692603810E+02  0.00000000000E+00 0. -1.
         22    1    1    2    0    0  0.18618863146E+02 -0.68314915010E+02 -0.87086928461E+02  0.11223957763E+03  0.00000000000E+00 0. -1.
</event>
<event>
 6    1  0.4069520E-005  0.6973935E+02  0.7818608E-02  0.1367526E+00
          2   -1    0    0  502    0  0.00000000000E+00  0.00000000000E+00  0.17628801483E+03  0.17628801483E+03  0.00000000000E+00 0. -1.
          1   -1    0    0  501    0 -0.00000000000E+00 -0.00000000000E+00 -0.11118443749E+03  0.11118443749E+03  0.00000000000E+00 0. -1.
          2    1    1    2  501    0 -0.22290046729E+02 -0.55009641689E+00  0.19701921709E+02  0.29754235131E+02  0.00000000000E+00 0. -1.
          1    1    1    2  502    0  0.23241294874E+02 -0.14987831987E+02 -0.76571290241E+02  0.81412255738E+02  0.00000000000E+00 0. -1.
         22    1    1    2    0    0 -0.34643504740E+02 -0.36628235310E+02  0.14976420750E+02  0.52593661415E+02  0.00000000000E+00 0. -1.
         22    1    1    2    0    0  0.33692256594E+02  0.52166163714E+02  0.10699652513E+03  0.12371230004E+03  0.00000000000E+00 0. -1.
</event>
<event>
 6    1  0.4069520E-005  0.1005040E+03  0.7818608E-02  0.1280527E+00
          2   -1    0    0  502    0  0.00000000000E+00  0.00000000000E+00  0.69511407512E+02  0.69511407512E+02  0.00000000000E+00 0.  1.
          1   -1    0    0  501    0 -0.00000000000E+00 -0.00000000000E+00 -0.26609624301E+04  0.26609624301E+04  0.00000000000E+00 0.  1.
          2    1    1    2  501    0  0.89250199032E+02 -0.72765099733E+02 -0.86995827990E+03  0.87754644694E+03  0.00000000000E+00 0.  1.
          1    1    1    2  502    0 -0.11125549856E+02  0.36882381890E+02 -0.17025878764E+04  0.17030236536E+04  0.00000000000E+00 0.  1.
         22    1    1    2    0    0  0.99855469098E+01 -0.49071403237E+01 -0.47421142395E+02  0.48708889531E+02  0.00000000000E+00 0. -1.
         22    1    1    2    0    0 -0.88110196086E+02  0.40789858167E+02  0.28516276019E+02  0.10119484760E+03  0.00000000000E+00 0.  1.
</event>
<event>
 6    1  0.4069520E-005  0.2637303E+03  0.7818608E-02  0.1235283E+00
          2   -1    0    0  502    0  0.00000000000E+00  0.00000000000E+00  0.18458077710E+03  0.18458077710E+03  0.00000000000E+00 0. -1.
          1   -1    0    0  501    0 -0.00000000000E+00 -0.00000000000E+00 -0.72086532609E+03  0.72086532609E+03  0.00000000000E+00 0. -1.
          2    1    1    2  501    0 -0.78579901769E+02  0.37315208009E+02 -0.12266533309E+03  0.15037955198E+03  0.00000000000E+00 0. -1.
          1    1    1    2  502    0  0.22249433214E+03 -0.12591047584E+03  0.36671540148E+02  0.25826726005E+03  0.00000000000E+00 0. -1.
         22    1    1    2    0    0 -0.93483078027E+01 -0.93918725534E+01  0.32765601880E+01  0.13650420342E+02  0.00000000000E+00 0.  1.
         22    1    1    2    0    0 -0.13456612257E+03  0.97987140383E+02 -0.45356731623E+03  0.48314887082E+03  0.00000000000E+00 0.  1.
</event>
<event>
 6    1  0.4069520E-005  0.2865031E+03  0.7818608E-02  0.1152913E+00
          2   -1    0    0  502    0  0.00000000000E+00  0.00000000000E+00  0.84694358477E+02  0.84694358477E+02  0.00000000000E+00 0. -1.
          1   -1    0    0  501    0 -0.00000000000E+00 -0.00000000000E+00 -0.53353055702E+03  0.53353055702E+03  0.00000000000E+00 0. -1.
          2    1    1    2  501    0 -0.23594321134E+02  0.51184721865E+02 -0.33384937967E+03  0.33857344262E+03  0.00000000000E+00 0. -1.
          1    1    1    2  502    0  0.18012749727E+02  0.14397252369E+02 -0.13877938422E+03  0.14068211512E+03  0.00000000000E+00 0. -1.
         22    1    1    2    0    0 -0.51054753744E+02 -0.40257745554E+02  0.38020984516E+02  0.75318452059E+02  0.00000000000E+00 0. -1.
         22    1    1    2    0    0  0.56636325151E+02 -0.25324228680E+02 -0.14228419170E+02  0.63650905704E+02  0.00000000000E+00 0. -1.
</event>
<event>
 6    1  0.4069520E-005  0.1089924E+03  0.7818608E-02  0.1280908E+00
          2   -1    0    0  502    0  0.00000000000E+00  0.00000000000E+00  0.73019117203E+02  0.73019117203E+02  0.00000000000E+00 0. -1.
          1   -1    0    0  501    0 -0.00000000000E+00 -0.00000000000E+00 -0.18666815750E+04  0.18666815750E+04  0.00000000000E+00 0. -1.
          2    1    1    2  501    0 -0.32374588377E+02  0.58378104854E+02 -0.31254914101E+02  0.73708796995E+02  0.00000000000E+00 0. -1.
          1    1    1    2  502    0 -0.12961652200E+02 -0.23995642421E+02 -0.17187460667E+04  0.17189624304E+04  0.00000000000E+00 0. -1.
         22    1    1    2    0    0  0.60182728891E+01 -0.71141340768E+02  0.87167041976E+01  0.71925592851E+02  0.00000000000E+00 0. -1.
         22    1    1    2    0    0  0.39317967688E+02  0.36758878335E+02 -0.52378181191E+02  0.75103871967E+02  0.00000000000E+00 0.  1.
</event>
<event>
 6    1  0.4069520E-005  0.5890824E+02  0.7818608E-02  0.1407009E+00
          2   -1    0    0  502    0  0.00000000000E+00  0.00000000000E+00  0.30259742693E+03  0.30259742693E+03  0.00000000000E+00 0.  1.
          1   -1    0    0  501    0 -0.00000000000E+00 -0.00000000000E+00 -0.48995271754E+02  0.48995271754E+02  0.00000000000E+00 0.  1.
          2    1    1    2  501    0 -0.28481763309E+02 -0.59125839869E+01  0.14416592855E+02  0.32465483828E+02  0.00000000000E+00 0.  1.
          1    1    1    2  502    0  0.44804356728E+02 -0.16954496973E+02 -0.56635007609E+00  0.47908309319E+02  0.00000000000E+00 0.  1.
         22    1    1    2    0    0  0.12516523580E+02  0.53907365320E+02  0.21530188811E+03  0.22230063073E+03  0.00000000000E+00 0.  1.
         22    1    1    2    0    0 -0.28839116998E+02 -0.31040284360E+02  0.24450024281E+02  0.48918274804E+02  0.00000000000E+00 0.  1.
</event>
<event>
 6    1  0.4069520E-005  0.1702937E+03  0.7818608E-02  0.1273814E+00
          2   -1    0    0  502    0  0.00000000000E+00  0.00000000000E+00  0.11699998944E+03  0.11699998944E+03  0.00000000000E+00 0.  1.
          1   -1    0    0  501    0 -0.00000000000E+00 -0.00000000000E+00 -0.51787212906E+03  0.51787212906E+03  0.00000000000E+00 0.  1.
          2    1    1    2  501    0  0.32648119700E+02  0.56454509907E+02 -0.51694237360E+02  0.83218420948E+02  0.00000000000E+00 0.  1.
          1    1    1    2  502    0 -0.28856950692E+02 -0.27146200455E+02 -0.41035818242E+03  0.41226627037E+03  0.00000000000E+00 0.  1.
         22    1    1    2    0    0  0.17417070491E+02 -0.20614841839E+02  0.94873349706E+02  0.98637105255E+02  0.00000000000E+00 0.  1.
         22    1    1    2    0    0 -0.21208239499E+02 -0.86934676135E+01 -0.33693069539E+02  0.40750321922E+02  0.00000000000E+00 0.  1.
</event>
<event>
 6    1  0.4166686E-005  0.8822256E+02  0.7818608E-02  0.1334739E+00
          2   -1    0    0  502    0  0.00000000000E+00  0.00000000000E+00  0.34865500639E+03  0.34865500639E+03  0.00000000000E+00 0. -1.
          1   -1    0    0  501    0 -0.00000000000E+00 -0.00000000000E+00 -0.33657478796E+03  0.33657478796E+03  0.00000000000E+00 0. -1.
          2    1    1    2  501    0  0.46643777794E+01 -0.52919685641E+02 -0.89804002473E+02  0.10434082810E+03  0.00000000000E+00 0. -1.
          1    1    1    2  502    0  0.10669328050E+02  0.10793641382E+03 -0.21207081945E+03  0.23819768355E+03  0.00000000000E+00 0. -1.
         22    1    1    2    0    0  0.11284985632E+02 -0.80479609897E+01 -0.81593565491E+01  0.16084019277E+02  0.00000000000E+00 0.  1.
         22    1    1    2    0    0 -0.26618691461E+02 -0.46968767185E+02  0.32211439691E+03  0.32660726342E+03  0.00000000000E+00 0. -1.
</event>
<event>
 6    1  0.4069520E-005  0.1170922E+03  0.7818608E-02  0.1249417E+00
          2   -1    0    0  502    0  0.00000000000E+00  0.00000000000E+00  0.66825538584E+02  0.66825538584E+02  0.00000000000E+00 0. -1.
          1   -1    0    0  501    0 -0.00000000000E+00 -0.00000000000E+00 -0.92845909091E+03  0.92845909091E+03  0.00000000000E+00 0. -1.
          2    1    1    2  501    0 -0.32474800351E+01  0.73942891845E+02 -0.15842326197E+03  0.17486002206E+03  0.00000000000E+00 0. -1.
          1    1    1    2  502    0  0.78701334399E+01  0.38553303187E+02 -0.64177986672E+03  0.64298498701E+03  0.00000000000E+00 0. -1.
         22    1    1    2    0    0  0.38286929291E+01 -0.12245261943E+03 -0.83726594788E+01  0.12279822606E+03  0.00000000000E+00 0. -1.
         22    1    1    2    0    0 -0.84513463339E+01  0.99564244030E+01 -0.53057764154E+02  0.54641394370E+02  0.00000000000E+00 0. -1.
</event>
<event>
 6    1  0.4069520E-005  0.1474632E+03  0.7818608E-02  0.1276955E+00
          2   -1    0    0  502    0  0.00000000000E+00  0.00000000000E+00  0.89008656620E+03  0.89008656620E+03  0.00000000000E+00 0. -1.
          1   -1    0    0  501    0 -0.00000000000E+00 -0.00000000000E+00 -0.30573752371E+02  0.30573752371E+02  0.00000000000E+00 0. -1.
          2    1    1    2  501    0 -0.17560740655E+02  0.27241012406E+02  0.58089662828E+02  0.66519630912E+02  0.00000000000E+00 0. -1.
          1    1    1    2  502    0 -0.43326150046E+02 -0.10627428338E+03  0.51829803280E+03  0.53085236120E+03  0.00000000000E+00 0. -1.
         22    1    1    2    0    0 -0.32692492538E+02  0.59934755195E+01  0.96932248094E+02  0.10247234523E+03  0.00000000000E+00 0. -1.
         22    1    1    2    0    0  0.93579383239E+02  0.73039795452E+02  0.18619287011E+03  0.22081598123E+03  0.00000000000E+00 0. -1.
</event>
<event>
 6    1  0.4069520E-005  0.7323852E+02  0.7818608E-02  0.1394032E+00
          2   -1    0    0  502    0  0.00000000000E+00  0.00000000000E+00  0.69733670075E+02  0.69733670075E+02  0.00000000000E+00 0.  1.
          1   -1    0    0  501    0 -0.00000000000E+00 -0.00000000000E+00 -0.23773465147E+04  0.23773465147E+04  0.00000000000E+00 0.  1.
          2    1    1    2  501    0  0.37238371889E+02 -0.13198951054E+02 -0.17244105262E+03  0.17690908761E+03  0.00000000000E+00 0.  1.
          1    1    1    2  502    0 -0.62951676563E+02  0.44916508009E+02 -0.21328288380E+04  0.21342303668E+04  0.00000000000E+00 0.  1.
         22    1    1    2    0    0  0.10370787061E+02 -0.33479654878E+02  0.61212117159E+02  0.70536258776E+02  0.00000000000E+00 0.  1.
         22    1    1    2    0    0  0.15342517613E+02  0.17620979227E+01 -0.63555071086E+02  0.65404471534E+02  0.00000000000E+00 0.  1.
</event>
<event>
 6    1  0.4069520E-005  0.7270537E+02  0.7818608E-02  0.1362289E+00
          2   -1    0    0  502    0  0.00000000000E+00  0.00000000000E+00  0.44073627310E+02  0.44073627310E+02  0.00000000000E+00 0. -1.
          1   -1    0    0  501    0 -0.00000000000E+00 -0.00000000000E+00 -0.63022419617E+03  0.63022419617E+03  0.00000000000E+00 0. -1.
          2    1    1    2  501    0  0.22729115610E+02  0.95837190839E+01 -0.74376996255E+01  0.25763923296E+02  0.00000000000E+00 0. -1.
          1    1    1    2  502    0 -0.78091515231E+01 -0.44378091817E+02 -0.47741280569E+03  0.47953455029E+03  0.00000000000E+00 0. -1.
         22    1    1    2    0    0  0.42555805397E+02  0.37056987661E+02 -0.95842792159E+02  0.11122076118E+03  0.00000000000E+00 0. -1.
         22    1    1    2    0    0 -0.57475769484E+02 -0.22626149280E+01 -0.54572713861E+01  0.57778588725E+02  0.00000000000E+00 0. -1.
</event>
<event>
 6    1  0.4069520E-005  0.1386395E+03  0.7818608E-02  0.1313646E+00
          2   -1    0    0  502    0  0.00000000000E+00  0.00000000000E+00  0.20742749435E+03  0.20742749435E+03  0.00000000000E+00 0. -1.
          1   -1    0    0  501    0 -0.00000000000E+00 -0.00000000000E+00 -0.21301268289E+03  0.21301268289E+03  0.00000000000E+00 0. -1.
          2    1    1    2  501    0 -0.53556172978E+02 -0.47847301235E+02  0.21188603439E+02  0.74877131456E+02  0.00000000000E+00 0. -1.
          1    1    1    2  502    0  0.95745957465E+02  0.15363670103E+02 -0.13796487177E+03  0.16863462447E+03  0.00000000000E+00 0. -1.
         22    1    1    2    0    0  0.11248613813E+02 -0.16814224501E+02  0.10159953464E+03  0.10359399064E+03  0.00000000000E+00 0.  1.
         22    1    1    2    0    0 -0.53438398301E+02  0.49297855632E+02  0.95915451392E+01  0.73334430666E+02  0.00000000000E+00 0. -1.
</event>
<event>
 6    1  0.4069520E-005  0.5849101E+03  0.7818608E-02  0.1134386E+00
          2   -1    0    0  502    0  0.00000000000E+00  0.00000000000E+00  0.20499404133E+03  0.20499404133E+03  0.00000000000E+00 0. -1.
          1   -1    0    0  501    0 -0.00000000000E+00 -0.00000000000E+00 -0.18357850492E+04  0.18357850492E+04  0.00000000000E+00 0. -1.
          2    1    1    2  501    0 -0.52713772848E+03 -0.40248374112E+02 -0.11249042708E+04  0.12429415653E+04  0.00000000000E+00 0. -1.
          1    1    1    2  502    0  0.27168223917E+03 -0.11305015533E+03 -0.23303179028E+03  0.37536034951E+03  0.00000000000E+00 0. -1.
         22    1    1    2    0    0  0.40184503807E+01  0.10843197908E+02 -0.66199272528E+02  0.67201685750E+02  0.00000000000E+00 0.  1.
         22    1    1    2    0    0  0.25143703893E+03  0.14245533153E+03 -0.20665567425E+03  0.35527548991E+03  0.00000000000E+00 0. -1.
</event>
<event>
 6    1  0.4069520E-005  0.7482248E+02  0.7818608E-02  0.1448647E+00
          2   -1    0    0  502    0  0.00000000000E+00  0.00000000000E+00  0.84085305993E+02  0.84085305993E+02  0.00000000000E+00 0. -1.
          1   -1    0    0  501    0 -0.00000000000E+00 -0.00000000000E+00 -0.58867996320E+03  0.58867996320E+03  0.00000000000E+00 0.  1.
          2    1    1    2  501    0 -0.19619492903E+02  0.36046071132E+02 -0.17330600066E+03  0.17809888717E+03  0.00000000000E+00 0. -1.
          1    1    1    2  502    0  0.29587126104E+01 -0.49978961197E+02 -0.36409785241E+03  0.36752400829E+03  0.00000000000E+00 0.  1.
         22    1    1    2    0    0  0.16894658789E+01 -0.14107447704E+02  0.73865254133E+02  0.75219346872E+02  0.00000000000E+00 0. -1.
         22    1    1    2    0    0  0.14971314414E+02  0.28040337769E+02 -0.41056058268E+02  0.51923026857E+02  0.00000000000E+00 0. -1.
</event>
<event>
 6    1  0.4069520E-005  0.6038679E+02  0.7818608E-02  0.1410765E+00
          2   -1    0    0  502    0  0.00000000000E+00  0.00000000000E+00  0.53065659911E+02  0.53065659911E+02  0.00000000000E+00 0. -1.
          1   -1    0    0  501    0 -0.00000000000E+00 -0.00000000000E+00 -0.47202648532E+03  0.47202648532E+03  0.00000000000E+00 0. -1.
          2    1    1    2  501    0  0.22557958242E+02  0.40573710334E+02 -0.15774630594E+03  0.16443535049E+03  0.00000000000E+00 0. -1.
          1    1    1    2  502    0  0.17068475227E+02 -0.36831678094E+02 -0.21676220550E+03  0.22053063074E+03  0.00000000000E+00 0. -1.
         22    1    1    2    0    0 -0.28790843128E+02 -0.37217602990E+02  0.31360086840E+02  0.56546597307E+02  0.00000000000E+00 0. -1.
         22    1    1    2    0    0 -0.10835590341E+02  0.33475570750E+02 -0.75812400806E+02  0.83579566707E+02  0.00000000000E+00 0. -1.
</event>
<event>
 6    1  0.4069520E-005  0.8497825E+02  0.7818608E-02  0.1330381E+00
          2   -1    0    0  502    0  0.00000000000E+00  0.00000000000E+00  0.11164908212E+02  0.11164908212E+02  0.00000000000E+00 0.  1.
          1   -1    0    0  501    0 -0.00000000000E+00 -0.00000000000E+00 -0.10020409085E+04  0.10020409085E+04  0.00000000000E+00 0.  1.
          2    1    1    2  501    0  0.97100106427E+01 -0.20590174085E+02 -0.85311367027E+02  0.88296483053E+02  0.00000000000E+00 0.  1.
          1    1    1    2  502    0  0.30492818909E+02  0.15446715901E+02 -0.41994942530E+03  0.42133826417E+03  0.00000000000E+00 0.  1.
         22    1    1    2    0    0  0.23959221910E+02  0.49687536804E+02 -0.20236578949E+03  0.20974939424E+03  0.00000000000E+00 0.  1.
         22    1    1    2    0    0 -0.64162051461E+02 -0.44544078620E+02 -0.28324941851E+03  0.29382167530E+03  0.00000000000E+00 0.  1.
</event>
<event>
 6    1  0.4069520E-005  0.5439359E+02  0.7818608E-02  0.1480819E+00
          2   -1    0    0  502    0  0.00000000000E+00  0.00000000000E+00  0.91911549603E+02  0.91911549603E+02  0.00000000000E+00 0. -1.
          1   -1    0    0  501    0 -0.00000000000E+00 -0.00000000000E+00 -0.42754266472E+03  0.42754266472E+03  0.00000000000E+00 0. -1.
          2    1    1    2  501    0 -0.55890867639E+01  0.28445390582E+02 -0.80216623720E+02  0.85294107987E+02  0.00000000000E+00 0. -1.
          1    1    1    2  502    0 -0.30030453423E+02 -0.46201541523E+02 -0.29175393974E+03  0.29691206093E+03  0.00000000000E+00 0. -1.
         22    1    1    2    0    0  0.12472306566E+02  0.15625630433E+02 -0.46815157209E+02  0.50905576335E+02  0.00000000000E+00 0. -1.
         22    1    1    2    0    0  0.23147233621E+02  0.21305205079E+01  0.83154605549E+02  0.86342469075E+02  0.00000000000E+00 0. -1.
</event>
<event>
 6    1  0.4069520E-005  0.9549488E+02  0.7818608E-02  0.1358847E+00
          2   -1    0    0  502    0  0.00000000000E+00  0.00000000000E+00  0.49575569639E+02  0.49575569639E+02  0.00000000000E+00 0.  1.
          1   -1    0    0  501    0 -0.00000000000E+00 -0.00000000000E+00 -0.12752027062E+04  0.12752027062E+04  0.00000000000E+00 0.  1.
          2    1    1    2  501    0 -0.16635709264E+02 -0.26067673032E+02 -0.21823296761E+03  0.22041301811E+03  0.00000000000E+00 0.  1.
          1    1    1    2  502    0  0.21372597579E+01  0.54253336196E+02 -0.96407277785E+03  0.96560049366E+03  0.00000000000E+00 0.  1.
         22    1    1    2    0    0  0.41782760257E+02 -0.21239106057E+02 -0.79883230889E+02  0.92618730601E+02  0.00000000000E+00 0.  1.
         22    1    1    2    0    0 -0.27284310751E+02 -0.69465571067E+01  0.36561839832E+02  0.46146033424E+02  0.00000000000E+00 0.  1.
</event>
<event>
 6    1  0.4069520E-005  0.4435053E+02  0.7818608E-02  0.1481925E+00
          2   -1    0    0  502    0  0.00000000000E+00  0.00000000000E+00  0.60672160778E+03  0.60672160778E+03  0.00000000000E+00 0. -1.
          1   -1    0    0  501    0 -0.00000000000E+00 -0.00000000000E+00 -0.66171395619E+02  0.66171395619E+02  0.00000000000E+00 0. -1.
          2    1    1    2  501    0 -0.37927191672E+02 -0.20622313900E+02 -0.29528899091E+02  0.52303992011E+02  0.00000000000E+00 0. -1.
          1    1    1    2  502    0  0.37433515378E+02 -0.20959696797E+01  0.41936299308E+03  0.42103560553E+03  0.00000000000E+00 0. -1.
         22    1    1    2    0    0  0.12880424314E+02  0.39786428570E+02  0.16747429169E+03  0.17261663768E+03  0.00000000000E+00 0. -1.
         22    1    1    2    0    0 -0.12386748019E+02 -0.17068144991E+02 -0.16758173515E+02  0.26936768171E+02  0.00000000000E+00 0. -1.
</event>
<event>
 6    1  0.4069520E-005  0.1278079E+03  0.7818608E-02  0.1233736E+00
          2   -1    0    0  502    0  0.00000000000E+00  0.00000000000E+00  0.33765430017E+03  0.33765430017E+03  0.00000000000E+00 0. -1.
          1   -1    0    0  501    0 -0.00000000000E+00 -0.00000000000E+00 -0.92885217898E+02  0.92885217898E+02  0.00000000000E+00 0. -1.
          2    1    1    2  501    0  0.78404156854E+02  0.33432735627E+02  0.91265725346E+02  0.12487750897E+03  0.00000000000E+00 0. -1.
          1    1    1    2  502    0  0.41515970742E+01  0.45566375859E+02 -0.31992013029E+02  0.55830271940E+02  0.00000000000E+00 0. -1.
         22    1    1    2    0    0 -0.11495410524E+03 -0.64857106126E+02  0.14768332848E+03  0.19806881642E+03  0.00000000000E+00 0. -1.
         22    1    1    2    0    0  0.32398351309E+02 -0.14142005361E+02  0.37812041466E+02  0.51762920735E+02  0.00000000000E+00 0. -1.
</event>
<event>
 6    1  0.4069520E-005  0.8103217E+02  0.7818608E-02  0.1334058E+00
          2   -1    0    0  502    0  0.00000000000E+00  0.00000000000E+00  0.37910108106E+03  0.37910108106E+03  0.00000000000E+00 0. -1.
          1   -1    0    0  501    0 -0.00000000000E+00 -0.00000000000E+00 -0.24917739626E+02  0.24917739626E+02  0.00000000000E+00 0.  1.
          2    1    1    2  501    0  0.99890874183E+00  0.24385991794E+02  0.24404787426E+02  0.34514751393E+02  0.00000000000E+00 0. -1.
          1    1    1    2  502    0  0.11380631060E+02 -0.33138639707E+02  0.41449271430E+02  0.54274582513E+02  0.00000000000E+00 0.  1.
         22    1    1    2    0    0 -0.52769210094E+02 -0.38036248102E+02  0.13304606750E+03  0.14809659611E+03  0.00000000000E+00 0.  1.
         22    1    1    2    0    0  0.40389670293E+02  0.46788896015E+02  0.15528321508E+03  0.16713289067E+03  0.00000000000E+00 0. -1.
</event>
<event>
 6    1  0.4069520E-005  0.8326285E+02  0.7818608E-02  0.1354836E+00
          2   -1    0    0  502    0  0.00000000000E+00  0.00000000000E+00  0.25365170106E+03  0.25365170106E+03  0.00000000000E+00 0. -1.
          1   -1    0    0  501    0 -0.00000000000E+00 -0.00000000000E+00 -0.76475125931E+02  0.76475125931E+02  0.00000000000E+00 0. -1.
          2    1    1    2  501    0 -0.11567965918E+01 -0.20879851551E+02 -0.18241647397E+02  0.27750028449E+02  0.00000000000E+00 0. -1.
          1    1    1    2  502    0  0.52665884700E+02  0.25032936890E+02  0.15341600722E+03  0.16412438762E+03  0.00000000000E+00 0. -1.
         22    1    1    2    0    0 -0.91390648652E+01  0.44523886762E+02  0.56094350670E+02  0.72197473474E+02  0.00000000000E+00 0.  1.
         22    1    1    2    0    0 -0.42370023243E+02 -0.48676972100E+02 -0.14092135362E+02  0.66054937450E+02  0.00000000000E+00 0. -1.
</event>
<event>
 6    1  0.4069520E-005  0.9455336E+02  0.7818608E-02  0.1379813E+00
          2   -1    0    0  502    0  0.00000000000E+00  0.00000000000E+00  0.39727583407E+02  0.39727583407E+02  0.00000000000E+00 0.  1.
          1   -1    0    0  501    0 -0.00000000000E+00 -0.00000000000E+00 -0.25953460208E+03  0.25953460208E+03  0.00000000000E+00 0. -1.
          2    1    1    2  501    0  0.27246067089E+02  0.21317565061E+02 -0.29338221715E+02  0.45359872193E+02  0.00000000000E+00 0.  1.
          1    1    1    2  502    0 -0.42927008214E+02  0.57134516597E+01 -0.48974747708E+02  0.65375052406E+02  0.00000000000E+00 0. -1.
         22    1    1    2    0    0  0.12402962131E+02 -0.47257910305E+02 -0.15596698668E+03  0.16344064516E+03  0.00000000000E+00 0. -1.
         22    1    1    2    0    0  0.32779789931E+01  0.20226893585E+02  0.14472937436E+02  0.25086615722E+02  0.00000000000E+00 0.  1.
</event>
<event>
 6    1  0.4069520E-005  0.6279074E+02  0.7818608E-02  0.1388356E+00
          2   -1    0    0  502    0  0.00000000000E+00  0.00000000000E+00  0.41617387358E+03  0.41617387358E+03  0.00000000000E+00 0. -1.
          1   -1    0    0  501    0 -0.00000000000E+00 -0.00000000000E+00 -0.30487257306E+02  0.30487257306E+02  0.00000000000E+00 0. -1.
          2    1    1    2  501    0  0.40842160647E+02 -0.22498346356E+01  0.29828297109E+02  0.50624807661E+02  0.00000000000E+00 0. -1.
          1    1    1    2  502    0 -0.19079348351E+02 -0.26580376436E+02  0.24226021964E+02  0.40711645572E+02  0.00000000000E+00 0. -1.
         22    1    1    2    0    0 -0.46253392382E+02  0.40008582098E+02  0.32034969473E+03  0.32613492585E+03  0.00000000000E+00 0. -1.
         22    1    1    2    0    0  0.24490580086E+02 -0.11178371026E+02  0.11282602475E+02  0.29189751803E+02  0.00000000000E+00 0. -1.
</event>
<event>
 6    1  0.4069520E-005  0.2573818E+03  0.7818608E-02  0.1155630E+00
          2   -1    0    0  502    0  0.00000000000E+00  0.00000000000E+00  0.26560445814E+03  0.26560445814E+03  0.00000000000E+00 0. -1.
          1   -1    0    0  501    0 -0.00000000000E+00 -0.00000000000E+00 -0.20402693352E+04  0.20402693352E+04  0.00000000000E+00 0. -1.
          2    1    1    2  501    0 -0.17911127715E+03  0.16369619042E+03 -0.54118139290E+02  0.24860825682E+03  0.00000000000E+00 0. -1.
          1    1    1    2  502    0  0.21485213236E+03 -0.12366868968E+03 -0.18514800659E+04  0.18680026279E+04  0.00000000000E+00 0. -1.
         22    1    1    2    0    0 -0.21456178418E+02 -0.78799214052E+02  0.12228410153E+03  0.14704790109E+03  0.00000000000E+00 0. -1.
         22    1    1    2    0    0 -0.14284676794E+02  0.38771713308E+02  0.86492265226E+01  0.42215007561E+02  0.00000000000E+00 0. -1.
</event>
<event>
 6    1  0.4069520E-005  0.4754639E+03  0.7818608E-02  0.1142828E+00
          2   -1    0    0  502    0  0.00000000000E+00  0.00000000000E+00  0.25384799597E+03  0.25384799597E+03  0.00000000000E+00 0. -1.
          1   -1    0    0  501    0 -0.00000000000E+00 -0.00000000000E+00 -0.85021161227E+03  0.85021161227E+03  0.00000000000E+00 0. -1.
          2    1    1    2  501    0  0.22132747987E+03  0.21596036861E+03 -0.72358941054E+02  0.31758550109E+03  0.00000000000E+00 0. -1.
          1    1    1    2  502    0 -0.33539829151E+03 -0.23765615463E+03 -0.33234699934E+03  0.52860854113E+03  0.00000000000E+00 0. -1.
         22    1    1    2    0    0 -0.59494788190E+01 -0.16514239130E+02  0.99268348302E+01  0.20165774025E+02  0.00000000000E+00 0.  1.
         22    1    1    2    0    0  0.12002029046E+03  0.38210025150E+02 -0.20158451073E+03  0.23769979199E+03  0.00000000000E+00 0. -1.
</event>
<event>
 6    1  0.4069520E-005  0.8862699E+02  0.7818608E-02  0.1395536E+00
          2   -1    0    0  502    0  0.00000000000E+00  0.00000000000E+00  0.73315373421E+02  0.73315373421E+02  0.00000000000E+00 0. -1.
          1   -1    0    0  501    0 -0.00000000000E+00 -0.00000000000E+00 -0.26865963583E+03  0.26865963583E+03  0.00000000000E+00 0. -1.
          2    1    1    2  501    0  0.87277158700E+01 -0.20391222266E+02 -0.11777019571E+03  0.11984070247E+03  0.00000000000E+00 0. -1.
          1    1    1    2  502    0  0.20351742108E+02 -0.15630805263E+02 -0.82968061183E+02  0.86845924812E+02  0.00000000000E+00 0. -1.
         22    1    1    2    0    0 -0.14157507895E+02  0.48277372786E+02 -0.53422527313E+02  0.73383282684E+02  0.00000000000E+00 0. -1.
         22    1    1    2    0    0 -0.14921950083E+02 -0.12255345258E+02  0.58816521797E+02  0.61905099289E+02  0.00000000000E+00 0. -1.
</event>
<event>
 6    1  0.4069520E-005  0.1147163E+03  0.7818608E-02  0.1253269E+00
          2   -1    0    0  502    0  0.00000000000E+00  0.00000000000E+00  0.34960120955E+03  0.34960120955E+03  0.00000000000E+00 0. -1.
          1   -1    0    0  501    0 -0.00000000000E+00 -0.00000000000E+00 -0.29787417358E+04  0.29787417358E+04  0.00000000000E+00 0. -1.
          2    1    1    2  501    0  0.11762546851E+03  0.28288185580E+02  0.31035308839E+02  0.12489660796E+03  0.00000000000E+00 0. -1.
          1    1    1    2  502    0 -0.49067930581E+02  0.37165732866E+02 -0.29090155665E+04  0.29096667369E+04  0.00000000000E+00 0. -1.
         22    1    1    2    0    0  0.16837281768E+02  0.25125343713E+01 -0.47726403108E+01  0.17680073015E+02  0.00000000000E+00 0. -1.
         22    1    1    2    0    0 -0.85394819694E+02 -0.67966452817E+02  0.25361237178E+03  0.27609952745E+03  0.00000000000E+00 0. -1.
</event>
<event>
 6    1  0.4069520E-005  0.1145401E+03  0.7818608E-02  0.1316210E+00
          2   -1    0    0  502    0  0.00000000000E+00  0.00000000000E+00  0.56748889193E+02  0.56748889193E+02  0.00000000000E+00 0. -1.
          1   -1    0    0  501    0 -0.00000000000E+00 -0.00000000000E+00 -0.86032057984E+03  0.86032057984E+03  0.00000000000E+00 0. -1.
          2    1    1    2  501    0 -0.39170820137E+02 -0.19521673301E+02 -0.58271810273E+03  0.58435933818E+03  0.00000000000E+00 0. -1.
          1    1    1    2  502    0  0.77962558574E+02 -0.29574179065E+02 -0.13902214512E+02  0.84534396403E+02  0.00000000000E+00 0. -1.
         22    1    1    2    0    0 -0.50608800920E+02  0.16943436726E+02 -0.20715547593E+03  0.21391989619E+03  0.00000000000E+00 0. -1.
         22    1    1    2    0    0  0.11817062482E+02  0.32152415640E+02  0.20410251366E+00  0.34255838262E+02  0.00000000000E+00 0. -1.
</event>
<event>
 6    1  0.4069520E-005  0.3898483E+03  0.7818608E-02  0.1151503E+00
          2   -1    0    0  502    0  0.00000000000E+00  0.00000000000E+00  0.36427322341E+03  0.36427322341E+03  0.00000000000E+00 0.  1.
          1   -1    0    0  501    0 -0.00000000000E+00 -0.00000000000E+00 -0.53456676651E+03  0.53456676651E+03  0.00000000000E+00 0.  1.
          2    1    1    2  501    0 -0.69614077879E+02 -0.11192265152E+03 -0.51641103647E+02  0.14156130597E+03  0.00000000000E+00 0.  1.
          1    1    1    2  502    0 -0.15394642426E+02  0.22554409744E+02 -0.41269186873E+03  0.41359433619E+03  0.00000000000E+00 0.  1.
         22    1    1    2    0    0 -0.21143804290E+02  0.14958900988E+02  0.42844100554E+01  0.26252339861E+02  0.00000000000E+00 0. -1.
         22    1    1    2    0    0  0.10615252460E+03  0.74409340791E+02  0.28975501922E+03  0.31743200790E+03  0.00000000000E+00 0.  1.
</event>
<event>
 6    1  0.4069520E-005  0.4899181E+02  0.7818608E-02  0.1455461E+00
          2   -1    0    0  502    0  0.00000000000E+00  0.00000000000E+00  0.40925349090E+02  0.40925349090E+02  0.00000000000E+00 0.  1.
          1   -1    0    0  501    0 -0.00000000000E+00 -0.00000000000E+00 -0.51968045957E+03  0.51968045957E+03  0.00000000000E+00 0.  1.
          2    1    1    2  501    0 -0.20438795328E+02  0.65284644523E+01 -0.33964822311E+03  0.34032525716E+03  0.00000000000E+00 0.  1.
          1    1    1    2  502    0  0.11751711904E+02  0.24991041537E+02 -0.65156689828E+02  0.70767571098E+02  0.00000000000E+00 0.  1.
         22    1    1    2    0    0  0.87681859431E+01  0.16231974977E+02 -0.95398266502E+02  0.97165772512E+02  0.00000000000E+00 0. -1.
         22    1    1    2    0    0 -0.81102519664E-01 -0.47751480966E+02  0.21448068954E+02  0.52347207891E+02  0.00000000000E+00 0.  1.
</event>
<event>
 6    1  0.4069520E-005  0.2613784E+03  0.7818608E-02  0.1106577E+00
          2   -1    0    0  502    0  0.00000000000E+00  0.00000000000E+00  0.86646041701E+03  0.86646041701E+03  0.00000000000E+00 0.  1.
          1   -1    0    0  501    0 -0.00000000000E+00 -0.00000000000E+00 -0.20572085690E+03  0.20572085690E+03  0.00000000000E+00 0. -1.
          2    1    1    2  501    0  0.16527700079E+03  0.18124556972E+03  0.50638405214E+03  0.56266442201E+03  0.00000000000E+00 0.  1.
          1    1    1    2  502    0  0.39755744096E+02 -0.41050896622E+02 -0.11077495119E+03  0.12464664100E+03  0.00000000000E+00 0. -1.
         22    1    1    2    0    0 -0.21120765493E+03 -0.15512582447E+03  0.24234026693E+03  0.35693346704E+03  0.00000000000E+00 0. -1.
         22    1    1    2    0    0  0.61749100386E+01  0.14931151377E+02  0.22790192225E+02  0.27936743852E+02  0.00000000000E+00 0. -1.
</event>
<event>
 6    1  0.4069520E-005  0.1689104E+03  0.7818608E-02  0.1264136E+00
          2   -1    0    0  502    0  0.00000000000E+00  0.00000000000E+00  0.12187657918E+03  0.12187657918E+03  0.00000000000E+00 0. -1.
          1   -1    0    0  501    0 -0.00000000000E+00 -0.00000000000E+00 -0.14119853866E+04  0.14119853866E+04  0.00000000000E+00 0.  1.
          2    1    1    2  501    0  0.77583332587E-01  0.11551704103E+03 -0.22444713392E+02  0.11767734679E+03  0.00000000000E+00 0. -1.
          1    1    1    2  502    0  0.65529707728E+02 -0.10643679724E+03 -0.12683940636E+04  0.12745377338E+04  0.00000000000E+00 0.  1.
         22    1    1    2    0    0 -0.43630954852E+02  0.88007877131E+01 -0.59956969254E+02  0.74672299066E+02  0.00000000000E+00 0. -1.
         22    1    1    2    0    0 -0.21976336208E+02 -0.17881031504E+02  0.60686938808E+02  0.66974586095E+02  0.00000000000E+00 0. -1.
</event>
<event>
 6    1  0.4069520E-005  0.8268179E+02  0.7818608E-02  0.1405945E+00
          2   -1    0    0  502    0  0.00000000000E+00  0.00000000000E+00  0.10877336763E+03  0.10877336763E+03  0.00000000000E+00 0.  1.
          1   -1    0    0  501    0 -0.00000000000E+00 -0.00000000000E+00 -0.24978824691E+03  0.24978824691E+03  0.00000000000E+00 0. -1.
          2    1    1    2  501    0  0.38110703556E+02 -0.13246734638E+02 -0.26222351851E+01  0.40432385799E+02  0.00000000000E+00 0.  1.
          1    1    1    2  502    0 -0.64126809193E+02  0.89142725784E+01 -0.17740017119E+03  0.18884526113E+03  0.00000000000E+00 0. -1.
         22    1    1    2    0    0  0.22352857919E+02  0.24168148150E+02 -0.37652495477E+02  0.50014598446E+02  0.00000000000E+00 0. -1.
         22    1    1    2    0    0  0.36632477190E+01 -0.19835686090E+02  0.76660022571E+02  0.79269369160E+02  0.00000000000E+00 0.  1.
</event>
<event>
 6    1  0.4069520E-005  0.1103617E+03  0.7818608E-02  0.1273472E+00
          2   -1    0    0  502    0  0.00000000000E+00  0.00000000000E+00  0.13453318474E+03  0.13453318474E+03  0.00000000000E+00 0. -1.
          1   -1    0    0  501    0 -0.00000000000E+00 -0.00000000000E+00 -0.56679084917E+03  0.56679084917E+03  0.00000000000E+00 0. -1.
          2    1    1    2  501    0  0.71991027374E+02  0.72960261141E+02  0.73541150862E+02  0.12615153030E+03  0.00000000000E+00 0. -1.
          1    1    1    2  502    0  0.11185307262E+02 -0.98297319522E+02 -0.31618919991E+03  0.33130512260E+03  0.00000000000E+00 0. -1.
         22    1    1    2    0    0  0.14129054081E+01  0.30815671158E+02  0.53211394625E+01  0.31303616656E+02  0.00000000000E+00 0.  1.
         22    1    1    2    0    0 -0.84589240044E+02 -0.54786127771E+01 -0.19493075485E+03  0.21256376435E+03  0.00000000000E+00 0. -1.
</event>
<event>
 6    1  0.4069520E-005  0.5488102E+02  0.7818608E-02  0.1438112E+00
          2   -1    0    0  502    0  0.00000000000E+00  0.00000000000E+00  0.34490179191E+02  0.34490179191E+02  0.00000000000E+00 0.  1.
          1   -1    0    0  501    0 -0.00000000000E+00 -0.00000000000E+00 -0.13204791593E+04  0.13204791593E+04  0.00000000000E+00 0. -1.
          2    1    1    2  501    0  0.12429779853E+02 -0.26329239195E+02 -0.16517562895E+03  0.16772214125E+03  0.00000000000E+00 0.  1.
          1    1    1    2  502    0 -0.44607711401E+02  0.26274549555E+02 -0.10244877764E+04  0.10257950106E+04  0.00000000000E+00 0. -1.
         22    1    1    2    0    0  0.70402065101E+01 -0.33733799946E+02 -0.11148778684E+03  0.11669216075E+03  0.00000000000E+00 0.  1.
         22    1    1    2    0    0  0.25137725038E+02  0.33788489586E+02  0.15162212003E+02  0.44760025931E+02  0.00000000000E+00 0.  1.
</event>
<event>
 6    1  0.4069520E-005  0.1128815E+03  0.7818608E-02  0.1261430E+00
          2   -1    0    0  502    0  0.00000000000E+00  0.00000000000E+00  0.73194925397E+03  0.73194925397E+03  0.00000000000E+00 0. -1.
          1   -1    0    0  501    0 -0.00000000000E+00 -0.00000000000E+00 -0.12294719791E+03  0.12294719791E+03  0.00000000000E+00 0. -1.
          2    1    1    2  501    0  0.53410671013E+02  0.36211504721E+02  0.20890799111E+03  0.21864702514E+03  0.00000000000E+00 0. -1.
          1    1    1    2  502    0  0.16032515884E+02  0.22926454053E+02 -0.10472606547E+03  0.10839839782E+03  0.00000000000E+00 0. -1.
         22    1    1    2    0    0 -0.10483578444E+03 -0.42098651047E+02  0.33459235743E+03  0.35314994516E+03  0.00000000000E+00 0. -1.
         22    1    1    2    0    0  0.35392597538E+02 -0.17039307727E+02  0.17022777299E+03  0.17470108376E+03  0.00000000000E+00 0. -1.
</event>
<event>
 6    1  0.4069520E-005  0.9751990E+02  0.7818608E-02  0.1294022E+00
          2   -1    0    0  502    0  0.00000000000E+00  0.00000000000E+00  0.13941443587E+03  0.13941443587E+03  0.00000000000E+00 0. -1.
          1   -1    0    0  501    0 -0.00000000000E+00 -0.00000000000E+00 -0.10292178426E+03  0.10292178426E+03  0.00000000000E+00 0. -1.
          2    1    1    2  501    0 -0.20663321905E+02  0.47091047020E+02 -0.24774652476E+02  0.57081722004E+02  0.00000000000E+00 0. -1.
          1    1    1    2  502    0  0.98492084488E+01 -0.18830554684E+02 -0.20313695835E+02  0.29398009036E+02  0.00000000000E+00 0. -1.
         22    1    1    2    0    0  0.53521106873E+02 -0.57296754823E+02  0.64297319303E+02  0.10139808807E+03  0.00000000000E+00 0. -1.
         22    1    1    2    0    0 -0.42706993417E+02  0.29036262487E+02  0.17283680627E+02  0.54458401023E+02  0.00000000000E+00 0. -1.
</event>
<event>
 6    1  0.4069520E-005  0.4785916E+02  0.7818608E-02  0.1466542E+00
          2   -1    0    0  502    0  0.00000000000E+00  0.00000000000E+00  0.12335842505E+03  0.12335842505E+03  0.00000000000E+00 0. -1.
          1   -1    0    0  501    0 -0.00000000000E+00 -0.00000000000E+00 -0.93494277679E+02  0.93494277679E+02  0.00000000000E+00 0. -1.
          2    1    1    2  501    0  0.99968952002E+01 -0.20737185458E+02 -0.44308124886E+02  0.49931740459E+02  0.00000000000E+00 0. -1.
          1    1    1    2  502    0 -0.16365575933E+02  0.15744631121E+02  0.21682207134E+02  0.31398146298E+02  0.00000000000E+00 0. -1.
         22    1    1    2    0    0  0.41275109709E+01  0.40825206347E+02  0.80255140332E+02  0.90136681600E+02  0.00000000000E+00 0. -1.
         22    1    1    2    0    0  0.22411697615E+01 -0.35832652010E+02 -0.27765075208E+02  0.45386134373E+02  0.00000000000E+00 0. -1.
</event>
<event>
 6    1  0.4069520E-005  0.1043721E+03  0.7818608E-02  0.1287545E+00
          2   -1    0    0  502    0  0.00000000000E+00  0.00000000000E+00  0.33623057888E+03  0.33623057888E+03  0.00000000000E+00 0.  1.
          1   -1    0    0  501    0 -0.00000000000E+00 -0.00000000000E+00 -0.11075142975E+03  0.11075142975E+03  0.00000000000E+00 0.  1.
          2    1    1    2  501    0 -0.87980896125E+02 -0.40342974639E+02 -0.32324764364E+02  0.10204452007E+03  0.00000000000E+00 0.  1.
          1    1    1    2  502    0  0.74124645109E+02 -0.22307855377E+02  0.39159644080E+02  0.86750107484E+02  0.00000000000E+00 0.  1.
         22    1    1    2    0    0 -0.29900303445E+02 -0.32391995161E+00  0.38917254018E+01  0.30154246746E+02  0.00000000000E+00 0.  1.
         22    1    1    2    0    0  0.43756554460E+02  0.62974749967E+02  0.21475254401E+03  0.22803313432E+03  0.00000000000E+00 0.  1.
</event>
<event>
 6    1  0.4069520E-005  0.6051165E+03  0.7818608E-02  0.9894847E-01
          2   -1    0    0  502    0  0.00000000000E+00  0.00000000000E+00  0.34656123894E+03  0.34656123894E+03  0.00000000000E+00 0.  1.
          1   -1    0    0  501    0 -0.00000000000E+00 -0.00000000000E+00 -0.15933544176E+04  0.15933544176E+04  0.00000000000E+00 0.  1.
          2    1    1    2  501    0  0.10718307077E+01  0.93283583580E+02  0.25475672683E+02  0.96705665218E+02  0.00000000000E+00 0.  1.
          1    1    1    2  502    0 -0.13689123547E+03 -0.56267886728E+03 -0.12006931201E+04  0.13330456432E+04  0.00000000000E+00 0.  1.
         22    1    1    2    0    0  0.16910774615E+02  0.16302322891E+02  0.22328835622E+02  0.32408593458E+02  0.00000000000E+00 0.  1.
         22    1    1    2    0    0  0.11890863015E+03  0.45309296081E+03 -0.93904566821E+02  0.47775575468E+03  0.00000000000E+00 0.  1.
</event>
<event>
 6    1  0.4069520E-005  0.7492707E+02  0.7818608E-02  0.1449756E+00
          2   -1    0    0  502    0  0.00000000000E+00  0.00000000000E+00  0.42145497140E+02  0.42145497140E+02  0.00000000000E+00 0. -1.
          1   -1    0    0  501    0 -0.00000000000E+00 -0.00000000000E+00 -0.36891052149E+03  0.36891052149E+03  0.00000000000E+00 0.  1.
          2    1    1    2  501    0 -0.28463640497E+01 -0.29627336506E+02 -0.36974230260E+02  0.47465509163E+02  0.00000000000E+00 0. -1.
          1    1    1    2  502    0 -0.19031850862E+02  0.96949928083E+01 -0.21042068478E+03  0.21150193573E+03  0.00000000000E+00 0.  1.
         22    1    1    2    0    0  0.27898284677E+02  0.32482368306E+02 -0.11021944801E+03  0.11824443014E+03  0.00000000000E+00 0.  1.
         22    1    1    2    0    0 -0.60200697653E+01 -0.12550024609E+02  0.30849338703E+02  0.33844143601E+02  0.00000000000E+00 0. -1.
</event>
<event>
 6    1  0.4069520E-005  0.2566835E+03  0.7818608E-02  0.1210815E+00
          2   -1    0    0  502    0  0.00000000000E+00  0.00000000000E+00  0.21826362122E+03  0.21826362122E+03  0.00000000000E+00 0.  1.
          1   -1    0    0  501    0 -0.00000000000E+00 -0.00000000000E+00 -0.41253745609E+03  0.41253745609E+03  0.00000000000E+00 0.  1.
          2    1    1    2  501    0  0.18995319573E+03 -0.57084026464E+02 -0.46254248083E+02  0.20366702755E+03  0.00000000000E+00 0.  1.
          1    1    1    2  502    0 -0.18789169574E+03  0.97224767741E+02 -0.19548827680E+03  0.28804793204E+03  0.00000000000E+00 0.  1.
         22    1    1    2    0    0 -0.25002240901E+02 -0.33213702030E+02 -0.34289036084E+02  0.53888774788E+02  0.00000000000E+00 0.  1.
         22    1    1    2    0    0  0.22940740911E+02 -0.69270392466E+01  0.81757726094E+02  0.85197342930E+02  0.00000000000E+00 0.  1.
</event>
<event>
 6    1  0.4069520E-005  0.2168740E+03  0.7818608E-02  0.1194542E+00
          2   -1    0    0  502    0  0.00000000000E+00  0.00000000000E+00  0.62738811355E+02  0.62738811355E+02  0.00000000000E+00 0. -1.
          1   -1    0    0  501    0 -0.00000000000E+00 -0.00000000000E+00 -0.77160765642E+03  0.77160765642E+03  0.00000000000E+00 0. -1.
          2    1    1    2  501    0 -0.53631086015E+02 -0.96930786967E+01 -0.32225700996E+03  0.32683303020E+03  0.00000000000E+00 0. -1.
          1    1    1    2  502    0  0.10364727486E+03  0.81328774177E+02 -0.31368160441E+03  0.34022533128E+03  0.00000000000E+00 0. -1.
         22    1    1    2    0    0 -0.88921218537E+02 -0.30685832197E+02 -0.45101973999E+02  0.10432061859E+03  0.00000000000E+00 0. -1.
         22    1    1    2    0    0  0.38905029695E+02 -0.40949863283E+02 -0.27828256695E+02  0.62967487715E+02  0.00000000000E+00 0.  1.
</event>
<event>
 6    1  0.4069520E-005  0.9355000E+02  0.7818608E-02  0.1296380E+00
          2   -1    0    0  502    0  0.00000000000E+00  0.00000000000E+00  0.17644854496E+03  0.17644854496E+03  0.00000000000E+00 0.  1.
          1   -1    0    0  501    0 -0.00000000000E+00 -0.00000000000E+00 -0.25542538990E+03  0.25542538990E+03  0.00000000000E+00 0. -1.
          2    1    1    2  501    0  0.82954231463E+01 -0.53628244327E+02  0.56194754243E+02  0.78119479256E+02  0.00000000000E+00 0.  1.
          1    1    1    2  502    0 -0.42797197621E+01  0.22421110753E+02 -0.20535357923E+03  0.20661828262E+03  0.00000000000E+00 0. -1.
         22    1    1    2    0    0  0.10521367055E+02  0.77633796389E+02  0.29482382948E+02  0.83707325909E+02  0.00000000000E+00 0.  1.
         22    1    1    2    0    0 -0.14537070439E+02 -0.46426662815E+02  0.40699597108E+02  0.63428847080E+02  0.00000000000E+00 0. -1.
</event>
<event>
 6    1  0.4069520E-005  0.1760660E+03  0.7818608E-02  0.1269746E+00
          2   -1    0    0  502    0  0.00000000000E+00  0.00000000000E+00  0.48876621734E+02  0.48876621734E+02  0.00000000000E+00 0. -1.
          1   -1    0    0  501    0 -0.00000000000E+00 -0.00000000000E+00 -0.40645085226E+03  0.40645085226E+03  0.00000000000E+00 0. -1.
          2    1    1    2  501    0  0.43941122242E+02  0.59383996027E+02 -0.19004968213E+03  0.20390233663E+03  0.00000000000E+00 0. -1.
          1    1    1    2  502    0 -0.21829889007E+02  0.96269989034E+01 -0.70056354792E+02  0.74007540215E+02  0.00000000000E+00 0. -1.
         22    1    1    2    0    0  0.79796110132E+01  0.20964593038E+02  0.17433177083E+02  0.28409576139E+02  0.00000000000E+00 0.  1.
         22    1    1    2    0    0 -0.30090844249E+02 -0.89975587969E+02 -0.11490137069E+03  0.14900802101E+03  0.00000000000E+00 0. -1.
</event>
<event>
 6    1  0.4069520E-005  0.1033930E+03  0.7818608E-02  0.1386141E+00
          2   -1    0    0  502    0  0.00000000000E+00  0.00000000000E+00  0.80607303366E+02  0.80607303366E+02  0.00000000000E+00 0. -1.
          1   -1    0    0  501    0 -0.00000000000E+00 -0.00000000000E+00 -0.56247895891E+03  0.56247895891E+03  0.00000000000E+00 0. -1.
          2    1    1    2  501    0  0.17634301762E+02 -0.11921176070E+02 -0.38298457204E+03  0.38357563199E+03  0.00000000000E+00 0. -1.
          1    1    1    2  502    0 -0.68016467127E+02  0.46805510487E+02  0.13582535823E+02  0.83674852206E+02  0.00000000000E+00 0. -1.
         22    1    1    2    0    0  0.36397527104E+02 -0.36982537538E+02 -0.13756747817E+03  0.14702822556E+03  0.00000000000E+00 0. -1.
         22    1    1    2    0    0  0.13984638261E+02  0.20982031218E+01  0.25097858841E+02  0.28807552518E+02  0.00000000000E+00 0. -1.
</event>
<event>
 6    1  0.4069520E-005  0.2205263E+03  0.7818608E-02  0.1187379E+00
          2   -1    0    0  502    0  0.00000000000E+00  0.00000000000E+00  0.10512675688E+04  0.10512675688E+04  0.00000000000E+00 0.  1.
          1   -1    0    0  501    0 -0.00000000000E+00 -0.00000000000E+00 -0.29222467397E+03  0.29222467397E+03  0.00000000000E+00 0.  1.
          2    1    1    2  501    0  0.30085599721E+02  0.35030580371E+02  0.13024698718E+03  0.13819031276E+03  0.00000000000E+00 0.  1.
          1    1    1    2  502    0 -0.14482990701E+03 -0.15866046577E+03 -0.23393872199E+03  0.31761009274E+03  0.00000000000E+00 0.  1.
         22    1    1    2    0    0  0.11789360771E+03  0.60789238567E+02  0.71367395376E+03  0.72589582347E+03  0.00000000000E+00 0.  1.
         22    1    1    2    0    0 -0.31493004235E+01  0.62840646829E+02  0.14906067587E+03  0.16179601379E+03  0.00000000000E+00 0.  1.
</event>
<event>
 6    1  0.4069520E-005  0.3994525E+02  0.7818608E-02  0.1540828E+00
          2   -1    0    0  502    0  0.00000000000E+00  0.00000000000E+00  0.10096093977E+03  0.10096093977E+03  0.00000000000E+00 0. -1.
          1   -1    0    0  501    0 -0.00000000000E+00 -0.00000000000E+00 -0.79955256148E+03  0.79955256148E+03  0.00000000000E+00 0.  1.
          2    1    1    2  501    0 -0.50043905401E+01 -0.30244413045E+02 -0.53129169337E+02  0.61339033899E+02  0.00000000000E+00 0. -1.
          1    1    1    2  502    0  0.15853558021E+02  0.20796202339E+02 -0.70173518614E+03  0.70222225029E+03  0.00000000000E+00 0.  1.
         22    1    1    2    0    0  0.15205787531E+02  0.21132188442E+02  0.89460031279E+02  0.93171253932E+02  0.00000000000E+00 0. -1.
         22    1    1    2    0    0 -0.26054955011E+02 -0.11683977736E+02 -0.33187297513E+02  0.43780963130E+02  0.00000000000E+00 0. -1.
</event>
<event>
 6    1  0.4069520E-005  0.8599182E+02  0.7818608E-02  0.1330450E+00
          2   -1    0    0  502    0  0.00000000000E+00  0.00000000000E+00  0.45000402378E+02  0.45000402378E+02  0.00000000000E+00 0.  1.
          1   -1    0    0  501    0 -0.00000000000E+00 -0.00000000000E+00 -0.37198512096E+03  0.37198512096E+03  0.00000000000E+00 0.  1.
          2    1    1    2  501    0 -0.15113190176E+01  0.30062099712E+02  0.36324476950E+01  0.30318453135E+02  0.00000000000E+00 0.  1.
          1    1    1    2  502    0 -0.73136362133E+01 -0.42388706008E+02 -0.20406204770E+03  0.20854642404E+03  0.00000000000E+00 0.  1.
         22    1    1    2    0    0  0.58828636212E+02  0.16443306266E+02 -0.27302870457E+02  0.66907678892E+02  0.00000000000E+00 0. -1.
         22    1    1    2    0    0 -0.50003680982E+02 -0.41166999697E+01 -0.99252248123E+02  0.11121296727E+03  0.00000000000E+00 0. -1.
</event>
<event>
 6    1  0.4069520E-005  0.4465888E+02  0.7818608E-02  0.1501301E+00
          2   -1    0    0  502    0  0.00000000000E+00  0.00000000000E+00  0.58863840845E+02  0.58863840845E+02  0.00000000000E+00 0. -1.
          1   -1    0    0  501    0 -0.00000000000E+00 -0.00000000000E+00 -0.84643043184E+03  0.84643043184E+03  0.00000000000E+00 0. -1.
          2    1    1    2  501    0 -0.40204824413E+02  0.20300475846E+02 -0.33182523189E+03  0.33486791686E+03  0.00000000000E+00 0. -1.
          1    1    1    2  502    0  0.29224279344E+02 -0.14084778908E+02 -0.44323536313E+03  0.44442100156E+03  0.00000000000E+00 0. -1.
         22    1    1    2    0    0 -0.15211226899E+02  0.11438415095E+02 -0.63351012625E+02  0.66148088138E+02  0.00000000000E+00 0.  1.
         22    1    1    2    0    0  0.26191771968E+02 -0.17654112033E+02  0.50845016646E+02  0.59857266127E+02  0.00000000000E+00 0. -1.
</event>
<event>
 6    1  0.4069520E-005  0.6903516E+02  0.7818608E-02  0.1436378E+00
          2   -1    0    0  502    0  0.00000000000E+00  0.00000000000E+00  0.96795800325E+02  0.96795800325E+02  0.00000000000E+00 0.  1.
          1   -1    0    0  501    0 -0.00000000000E+00 -0.00000000000E+00 -0.14303348886E+04  0.14303348886E+04  0.00000000000E+00 0.  1.
          2    1    1    2  501    0  0.27299714170E+02 -0.24568536871E+02 -0.54315612610E+02  0.65567317857E+02  0.00000000000E+00 0.  1.
          1    1    1    2  502    0 -0.37535232451E+02 -0.23382930531E+02 -0.13196086203E+04  0.13203494105E+04  0.00000000000E+00 0.  1.
         22    1    1    2    0    0  0.88593267404E+01  0.26279333468E+02 -0.45138098617E+02  0.52976777786E+02  0.00000000000E+00 0.  1.
         22    1    1    2    0    0  0.13761915408E+01  0.21672133933E+02  0.85523243228E+02  0.88237182778E+02  0.00000000000E+00 0.  1.
</event>
<event>
 6    1  0.4069520E-005  0.6433805E+02  0.7818608E-02  0.1397453E+00
          2   -1    0    0  502    0  0.00000000000E+00  0.00000000000E+00  0.59191639845E+02  0.59191639845E+02  0.00000000000E+00 0.  1.
          1   -1    0    0  501    0 -0.00000000000E+00 -0.00000000000E+00 -0.79526044523E+03  0.79526044523E+03  0.00000000000E+00 0. -1.
          2    1    1    2  501    0 -0.26566118446E+01  0.28225112902E+02 -0.10538108216E+02  0.30245103895E+02  0.00000000000E+00 0.  1.
          1    1    1    2  502    0  0.32705605893E+00 -0.59716195921E+02 -0.68806341151E+03  0.69064997595E+03  0.00000000000E+00 0. -1.
         22    1    1    2    0    0  0.24813732057E+02  0.74980026489E+02 -0.19001400184E+02  0.81232868223E+02  0.00000000000E+00 0.  1.
         22    1    1    2    0    0 -0.22484176271E+02 -0.43488943470E+02 -0.18465885470E+02  0.52324137001E+02  0.00000000000E+00 0.  1.
</event>
<event>
 6    1  0.4069520E-005  0.6541986E+02  0.7818608E-02  0.1383048E+00
          2   -1    0    0  502    0  0.00000000000E+00  0.00000000000E+00  0.12084705527E+03  0.12084705527E+03  0.00000000000E+00 0.  1.
          1   -1    0    0  501    0 -0.00000000000E+00 -0.00000000000E+00 -0.31539498107E+03  0.31539498107E+03  0.00000000000E+00 0.  1.
          2    1    1    2  501    0  0.14770669528E+02 -0.26174989099E+02  0.30318094633E+02  0.42690626545E+02  0.00000000000E+00 0.  1.
          1    1    1    2  502    0 -0.76810666392E+01  0.36158234955E+02 -0.25707154386E+03  0.25971560485E+03  0.00000000000E+00 0.  1.
         22    1    1    2    0    0 -0.43712931570E+02  0.19579245932E+01 -0.35228052106E+02  0.56175346107E+02  0.00000000000E+00 0.  1.
         22    1    1    2    0    0  0.36623328681E+02 -0.11941170449E+02  0.67433575542E+02  0.77660458830E+02  0.00000000000E+00 0.  1.
</event>
<event>
 6    1  0.4069520E-005  0.1302895E+03  0.7818608E-02  0.1313110E+00
          2   -1    0    0  502    0  0.00000000000E+00  0.00000000000E+00  0.17409555605E+03  0.17409555605E+03  0.00000000000E+00 0. -1.
          1   -1    0    0  501    0 -0.00000000000E+00 -0.00000000000E+00 -0.31527659422E+03  0.31527659422E+03  0.00000000000E+00 0.  1.
          2    1    1    2  501    0  0.47026358209E+01 -0.49512269393E+02 -0.24217573822E+01  0.49794020855E+02  0.00000000000E+00 0. -1.
          1    1    1    2  502    0 -0.84523878453E+02  0.91832340225E+02 -0.22662469765E+03  0.25872034772E+03  0.00000000000E+00 0.  1.
         22    1    1    2    0    0  0.24600351919E+02  0.72462782922E+00  0.10576468756E+03  0.10859038417E+03  0.00000000000E+00 0. -1.
         22    1    1    2    0    0  0.55220890713E+02 -0.43044698661E+02 -0.17899270691E+02  0.72267397526E+02  0.00000000000E+00 0. -1.
</event>
<event>
 6    1  0.4069520E-005  0.1674561E+03  0.7818608E-02  0.1253050E+00
          2   -1    0    0  502    0  0.00000000000E+00  0.00000000000E+00  0.52420606234E+02  0.52420606234E+02  0.00000000000E+00 0.  1.
          1   -1    0    0  501    0 -0.00000000000E+00 -0.00000000000E+00 -0.13630291104E+04  0.13630291104E+04  0.00000000000E+00 0.  1.
          2    1    1    2  501    0 -0.52596411223E+02  0.29669897768E+02 -0.66447931370E+02  0.89788712489E+02  0.00000000000E+00 0.  1.
          1    1    1    2  502    0 -0.60196498146E+02 -0.27532702034E+02 -0.11095498212E+04  0.11115225926E+04  0.00000000000E+00 0.  1.
         22    1    1    2    0    0  0.12107610941E+02 -0.34086797626E+02 -0.94430423595E+02  0.10112175293E+03  0.00000000000E+00 0.  1.
         22    1    1    2    0    0  0.10068529843E+03  0.31949601892E+02 -0.40180328053E+02  0.11301665870E+03  0.00000000000E+00 0.  1.
</event>
<event>
 6    1  0.4069520E-005  0.2340503E+03  0.7818608E-02  0.1125014E+00
          2   -1    0    0  502    0  0.00000000000E+00  0.00000000000E+00  0.40819488777E+03  0.40819488777E+03  0.00000000000E+00 0.  1.
          1   -1    0    0  501    0 -0.00000000000E+00 -0.00000000000E+00 -0.11200324879E+04  0.11200324879E+04  0.00000000000E+00 0.  1.
          2    1    1    2  501    0 -0.22464487333E+03  0.88816696673E+02  0.22496655424E+03  0.33009646355E+03  0.00000000000E+00 0.  1.
          1    1    1    2  502    0  0.47167896872E+02 -0.53956247574E+02 -0.97435867624E+03  0.97699074566E+03  0.00000000000E+00 0.  1.
         22    1    1    2    0    0 -0.10248040953E+02 -0.27467540679E+01  0.28569919724E+02  0.30476340238E+02  0.00000000000E+00 0.  1.
         22    1    1    2    0    0  0.18772501741E+03 -0.32113695031E+02  0.89846021070E+01  0.19066382626E+03  0.00000000000E+00 0.  1.
</event>
<event>
 6    1  0.4069520E-005  0.8160450E+02  0.7818608E-02  0.1419330E+00
          2   -1    0    0  502    0  0.00000000000E+00  0.00000000000E+00  0.59603248541E+02  0.59603248541E+02  0.00000000000E+00 0. -1.
          1   -1    0    0  501    0 -0.00000000000E+00 -0.00000000000E+00 -0.67262897230E+03  0.67262897230E+03  0.00000000000E+00 0.  1.
          2    1    1    2  501    0 -0.26232753809E+02 -0.25964890882E+01 -0.73968074621E+02  0.78524997238E+02  0.00000000000E+00 0. -1.
          1    1    1    2  502    0 -0.16594082127E+02  0.15075367580E+02 -0.51564770424E+03  0.51613485172E+03  0.00000000000E+00 0.  1.
         22    1    1    2    0    0  0.48259200264E+02 -0.28628846475E+02 -0.68980432268E+02  0.88920533605E+02  0.00000000000E+00 0. -1.
         22    1    1    2    0    0 -0.54323643269E+01  0.16149967983E+02  0.45570487375E+02  0.48651838276E+02  0.00000000000E+00 0. -1.
</event>
<event>
 6    1  0.4069520E-005  0.3253018E+03  0.7818608E-02  0.1146151E+00
          2   -1    0    0  502    0  0.00000000000E+00  0.00000000000E+00  0.43971092255E+03  0.43971092255E+03  0.00000000000E+00 0. -1.
          1   -1    0    0  501    0 -0.00000000000E+00 -0.00000000000E+00 -0.18038683282E+03  0.18038683282E+03  0.00000000000E+00 0. -1.
          2    1    1    2  501    0  0.81754906787E+02  0.50594778437E+02 -0.28986929285E+02  0.10041881526E+03  0.00000000000E+00 0. -1.
          1    1    1    2  502    0 -0.11407983778E+03  0.11542331069E+03 -0.87394487978E+00  0.16228836625E+03  0.00000000000E+00 0. -1.
         22    1    1    2    0    0 -0.21482167698E+02 -0.45834675964E+02  0.14310120329E+02  0.52603047379E+02  0.00000000000E+00 0.  1.
         22    1    1    2    0    0  0.53807098695E+02 -0.12018341317E+03  0.27487484357E+03  0.30478752648E+03  0.00000000000E+00 0. -1.
</event>
<event>
 6    1  0.4069520E-005  0.1167721E+03  0.7818608E-02  0.1267182E+00
          2   -1    0    0  502    0  0.00000000000E+00  0.00000000000E+00  0.49586505211E+03  0.49586505211E+03  0.00000000000E+00 0.  1.
          1   -1    0    0  501    0 -0.00000000000E+00 -0.00000000000E+00 -0.17661233649E+03  0.17661233649E+03  0.00000000000E+00 0.  1.
          2    1    1    2  501    0  0.38912036724E+02  0.12265909130E+02  0.31295827223E+02  0.51420112119E+02  0.00000000000E+00 0.  1.
          1    1    1    2  502    0  0.38046195389E+02 -0.11040025748E+03 -0.12628439779E+03  0.17199848534E+03  0.00000000000E+00 0.  1.
         22    1    1    2    0    0 -0.70702014308E+02  0.12540289642E+03  0.32310981392E+03  0.35372957624E+03  0.00000000000E+00 0. -1.
         22    1    1    2    0    0 -0.62562178048E+01 -0.27268548065E+02  0.91131472267E+02  0.95329214894E+02  0.00000000000E+00 0.  1.
</event>
<event>
 6    1  0.4069520E-005  0.2104852E+03  0.7818608E-02  0.1247909E+00
          2   -1    0    0  502    0  0.00000000000E+00  0.00000000000E+00  0.27418574547E+03  0.27418574547E+03  0.00000000000E+00 0.  1.
          1   -1    0    0  501    0 -0.00000000000E+00 -0.00000000000E+00 -0.13919713524E+03  0.13919713524E+03  0.00000000000E+00 0.  1.
          2    1    1    2  501    0  0.10688208634E+03 -0.72492396503E+02  0.77167898504E+02  0.15044538043E+03  0.00000000000E+00 0.  1.
          1    1    1    2  502    0 -0.98472398670E+02  0.84037214108E+02  0.38424053729E+02  0.13503878909E+03  0.00000000000E+00 0.  1.
         22    1    1    2    0    0 -0.28586723450E+02 -0.11028712251E+02 -0.48332319272E+02  0.57226273142E+02  0.00000000000E+00 0.  1.
         22    1    1    2    0    0  0.20177035776E+02 -0.51610535423E+00  0.67728977266E+02  0.70672438043E+02  0.00000000000E+00 0. -1.
</event>
<event>
 6    1  0.4069520E-005  0.1700851E+03  0.7818608E-02  0.1212782E+00
          2   -1    0    0  502    0  0.00000000000E+00  0.00000000000E+00  0.27715323236E+03  0.27715323236E+03  0.00000000000E+00 0. -1.
          1   -1    0    0  501    0 -0.00000000000E+00 -0.00000000000E+00 -0.41723627946E+03  0.41723627946E+03  0.00000000000E+00 0. -1.
          2    1    1    2  501    0 -0.80863410173E+02  0.11294199890E+03 -0.25038285225E+03  0.28633260192E+03  0.00000000000E+00 0. -1.
          1    1    1    2  502    0  0.13552336196E+03 -0.25756224748E+02 -0.77891203989E+02  0.15842034089E+03  0.00000000000E+00 0. -1.
         22    1    1    2    0    0 -0.48129248716E+02 -0.62631867542E+02  0.20464947908E+03  0.21936404606E+03  0.00000000000E+00 0. -1.
         22    1    1    2    0    0 -0.65307030711E+01 -0.24553906614E+02 -0.16458469944E+02  0.30272522945E+02  0.00000000000E+00 0. -1.
</event>
<event>
 6    1  0.4069520E-005  0.6487237E+02  0.7818608E-02  0.1390918E+00
          2   -1    0    0  502    0  0.00000000000E+00  0.00000000000E+00  0.27134119841E+03  0.27134119841E+03  0.00000000000E+00 0. -1.
          1   -1    0    0  501    0 -0.00000000000E+00 -0.00000000000E+00 -0.48626159986E+03  0.48626159986E+03  0.00000000000E+00 0.  1.
          2    1    1    2  501    0 -0.57146558214E+01  0.80213664899E+02  0.18272905693E+03  0.19964167294E+03  0.00000000000E+00 0. -1.
          1    1    1    2  502    0  0.36967616922E+02 -0.45750913257E+02 -0.41604658335E+03  0.42018390055E+03  0.00000000000E+00 0.  1.
         22    1    1    2    0    0 -0.21087119333E+02 -0.48637114523E+02 -0.46537513892E+02  0.70540596185E+02  0.00000000000E+00 0. -1.
         22    1    1    2    0    0 -0.10165841767E+02  0.14174362881E+02  0.64934638862E+02  0.67236628604E+02  0.00000000000E+00 0. -1.
</event>
<event>
 6    1  0.4069520E-005  0.3037418E+03  0.7818608E-02  0.1209508E+00
          2   -1    0    0  502    0  0.00000000000E+00  0.00000000000E+00  0.28964185997E+03  0.28964185997E+03  0.00000000000E+00 0. -1.
          1   -1    0    0  501    0 -0.00000000000E+00 -0.00000000000E+00 -0.24821951807E+04  0.24821951807E+04  0.00000000000E+00 0.  1.
          2    1    1    2  501    0 -0.21127523246E+02 -0.26737205402E-01 -0.29020413757E+02  0.35896481276E+02  0.00000000000E+00 0. -1.
          1    1    1    2  502    0  0.23308782888E+02  0.23912847673E+03 -0.23788135016E+04  0.23909160176E+04  0.00000000000E+00 0.  1.
         22    1    1    2    0    0 -0.24861173166E+01  0.14661838397E+02  0.19456350381E+02  0.24488769970E+02  0.00000000000E+00 0. -1.
         22    1    1    2    0    0  0.30485767390E+00 -0.25376357792E+03  0.19582424423E+03  0.32053577186E+03  0.00000000000E+00 0. -1.
</event>
<event>
 6    1  0.4069520E-005  0.9758808E+02  0.7818608E-02  0.1296848E+00
          2   -1    0    0  502    0  0.00000000000E+00  0.00000000000E+00  0.55877404261E+03  0.55877404261E+03  0.00000000000E+00 0. -1.
          1   -1    0    0  501    0 -0.00000000000E+00 -0.00000000000E+00 -0.23751916461E+02  0.23751916461E+02  0.00000000000E+00 0.  1.
          2    1    1    2  501    0 -0.34337812263E+02  0.37194649206E+02  0.71534568608E+02  0.87634021855E+02  0.00000000000E+00 0. -1.
          1    1    1    2  502    0  0.11222053276E+02 -0.25067818111E+02  0.18279865264E+02  0.32992172687E+02  0.00000000000E+00 0.  1.
         22    1    1    2    0    0 -0.62664442963E+01  0.52015732732E+02  0.19930339465E+03  0.20607461729E+03  0.00000000000E+00 0. -1.
         22    1    1    2    0    0  0.29382203284E+02 -0.64142563827E+02  0.24590429764E+03  0.25582514724E+03  0.00000000000E+00 0.  1.
</event>
<event>
 6    1  0.4069520E-005  0.8975135E+02  0.7818608E-02  0.1377780E+00
          2   -1    0    0  502    0  0.00000000000E+00  0.00000000000E+00  0.16975396739E+03  0.16975396739E+03  0.00000000000E+00 0. -1.
          1   -1    0    0  501    0 -0.00000000000E+00 -0.00000000000E+00 -0.12834453425E+03  0.12834453425E+03  0.00000000000E+00 0. -1.
          2    1    1    2  501    0  0.14865957052E+02 -0.21848230364E+02 -0.69504950656E+02  0.74359128659E+02  0.00000000000E+00 0. -1.
          1    1    1    2  502    0 -0.50670956795E+02 -0.31081083333E+01  0.40513356578E+01  0.50927590956E+02  0.00000000000E+00 0. -1.
         22    1    1    2    0    0 -0.13550905459E+02  0.20732112612E+02  0.11921335249E+03  0.12175906924E+03  0.00000000000E+00 0. -1.
         22    1    1    2    0    0  0.49355905202E+02  0.42242260859E+01 -0.12350304352E+02  0.51052712777E+02  0.00000000000E+00 0. -1.
</event>
<event>
 6    1  0.4069520E-005  0.1203162E+03  0.7818608E-02  0.1322809E+00
          2   -1    0    0  502    0  0.00000000000E+00  0.00000000000E+00  0.52782366972E+02  0.52782366972E+02  0.00000000000E+00 0. -1.
          1   -1    0    0  501    0 -0.00000000000E+00 -0.00000000000E+00 -0.22976775331E+04  0.22976775331E+04  0.00000000000E+00 0.  1.
          2    1    1    2  501    0  0.23522778216E+02 -0.51016412305E+01 -0.57601791441E+02  0.62428472794E+02  0.00000000000E+00 0. -1.
          1    1    1    2  502    0  0.18677718192E+02 -0.23925376568E+02 -0.21500083176E+04  0.21502225575E+04  0.00000000000E+00 0.  1.
         22    1    1    2    0    0  0.93480103438E+01  0.30405186231E+02 -0.69897125342E+02  0.76794978861E+02  0.00000000000E+00 0. -1.
         22    1    1    2    0    0 -0.51548506752E+02 -0.13781684327E+01  0.32612068249E+02  0.61013890976E+02  0.00000000000E+00 0. -1.
</event>
<event>
 6    1  0.4069520E-005  0.3425830E+03  0.7818608E-02  0.1154666E+00
          2   -1    0    0  502    0  0.00000000000E+00  0.00000000000E+00  0.68396506942E+03  0.68396506942E+03  0.00000000000E+00 0. -1.
          1   -1    0    0  501    0 -0.00000000000E+00 -0.00000000000E+00 -0.13969824739E+03  0.13969824739E+03  0.00000000000E+00 0. -1.
          2    1    1    2  501    0 -0.58734431367E+02 -0.43875743015E+02 -0.13194466306E+02  0.74490994048E+02  0.00000000000E+00 0. -1.
          1    1    1    2  502    0  0.42384016315E+02 -0.19372441807E+03  0.10882966159E+03  0.22620665383E+03  0.00000000000E+00 0. -1.
         22    1    1    2    0    0  0.35965405104E+02  0.20810038467E+03  0.28032990328E+03  0.35097597516E+03  0.00000000000E+00 0. -1.
         22    1    1    2    0    0 -0.19614990052E+02  0.29499776415E+02  0.16830172346E+03  0.17198969377E+03  0.00000000000E+00 0. -1.
</event>
<event>
 6    1  0.4069520E-005  0.2331551E+03  0.7818608E-02  0.1180259E+00
          2   -1    0    0  502    0  0.00000000000E+00  0.00000000000E+00  0.27057766442E+03  0.27057766442E+03  0.00000000000E+00 0. -1.
          1   -1    0    0  501    0 -0.00000000000E+00 -0.00000000000E+00 -0.15655660784E+04  0.15655660784E+04  0.00000000000E+00 0. -1.
          2    1    1    2  501    0  0.75550693277E+02  0.74030718787E+02 -0.42453084566E+02  0.11397683523E+03  0.00000000000E+00 0. -1.
          1    1    1    2  502    0 -0.18013676523E+03 -0.15330901860E+03 -0.14400550643E+04  0.14593531093E+04  0.00000000000E+00 0. -1.
         22    1    1    2    0    0  0.57909427289E+02  0.37843038691E+02  0.43640907565E+01  0.69315529533E+02  0.00000000000E+00 0. -1.
         22    1    1    2    0    0  0.46676644662E+02  0.41435261122E+02  0.18315564416E+03  0.19349826875E+03  0.00000000000E+00 0. -1.
</event>
<event>
 6    1  0.4069520E-005  0.1515762E+03  0.7818608E-02  0.1251695E+00
          2   -1    0    0  502    0  0.00000000000E+00  0.00000000000E+00  0.54477444906E+03  0.54477444906E+03  0.00000000000E+00 0.  1.
          1   -1    0    0  501    0 -0.00000000000E+00 -0.00000000000E+00 -0.21032381638E+03  0.21032381638E+03  0.00000000000E+00 0.  1.
          2    1    1    2  501    0 -0.77902749838E+01  0.22284057856E+02  0.26441158417E+02  0.35445768115E+02  0.00000000000E+00 0.  1.
          1    1    1    2  502    0 -0.35668565420E+02 -0.14490449798E+03 -0.15901579621E+03  0.21807242728E+03  0.00000000000E+00 0.  1.
         22    1    1    2    0    0  0.50092730977E+02 -0.12666975417E+01  0.21383118078E+03  0.21962390601E+03  0.00000000000E+00 0.  1.
         22    1    1    2    0    0 -0.66338905723E+01  0.12388713766E+03  0.25319408970E+03  0.28195616404E+03  0.00000000000E+00 0.  1.
</event>
<event>
 6    1  0.4069520E-005  0.4375090E+02  0.7818608E-02  0.1546245E+00
          2   -1    0    0  502    0  0.00000000000E+00  0.00000000000E+00  0.45399014830E+02  0.45399014830E+02  0.00000000000E+00 0.  1.
          1   -1    0    0  501    0 -0.00000000000E+00 -0.00000000000E+00 -0.20897255838E+03  0.20897255838E+03  0.00000000000E+00 0.  1.
          2    1    1    2  501    0  0.18944934944E+02  0.70403719734E+01 -0.46175567114E+02  0.50404964000E+02  0.00000000000E+00 0.  1.
          1    1    1    2  502    0 -0.25753554987E+02 -0.26228489861E+02 -0.51084060060E+02  0.62934572907E+02  0.00000000000E+00 0.  1.
         22    1    1    2    0    0  0.23987386121E+02  0.12399793640E+02 -0.99474276371E+02  0.10307415406E+03  0.00000000000E+00 0. -1.
         22    1    1    2    0    0 -0.17178766078E+02  0.67883242479E+01  0.33160359991E+02  0.37957882249E+02  0.00000000000E+00 0.  1.
</event>
<event>
 6    1  0.4069520E-005  0.8970701E+02  0.7818608E-02  0.1319435E+00
          2   -1    0    0  502    0  0.00000000000E+00  0.00000000000E+00  0.57285451481E+03  0.57285451481E+03  0.00000000000E+00 0. -1.
          1   -1    0    0  501    0 -0.00000000000E+00 -0.00000000000E+00 -0.32326370351E+02  0.32326370351E+02  0.00000000000E+00 0. -1.
          2    1    1    2  501    0 -0.52276501312E+02 -0.20391395965E+02  0.32494984943E+02  0.64842622289E+02  0.00000000000E+00 0. -1.
          1    1    1    2  502    0  0.38845136398E+02  0.20124037500E+02  0.53038969230E+02  0.68753572736E+02  0.00000000000E+00 0. -1.
         22    1    1    2    0    0  0.51606849485E+02  0.34833870224E+02  0.33902154364E+03  0.34469156137E+03  0.00000000000E+00 0. -1.
         22    1    1    2    0    0 -0.38175484571E+02 -0.34566511758E+02  0.11597264664E+03  0.12689312876E+03  0.00000000000E+00 0. -1.
</event>
<event>
 6    1  0.4069520E-005  0.1017132E+03  0.7818608E-02  0.1285045E+00
          2   -1    0    0  502    0  0.00000000000E+00  0.00000000000E+00  0.74076148955E+03  0.74076148955E+03  0.00000000000E+00 0. -1.
          1   -1    0    0  501    0 -0.00000000000E+00 -0.00000000000E+00 -0.44350038489E+02  0.44350038489E+02  0.00000000000E+00 0. -1.
          2    1    1    2  501    0  0.54840496312E+02  0.50361223383E+02  0.48283838699E+02  0.88741545715E+02  0.00000000000E+00 0. -1.
          1    1    1    2  502    0  0.40085102816E+01 -0.95904729938E+02  0.14774377157E+03  0.17618742128E+03  0.00000000000E+00 0. -1.
         22    1    1    2    0    0 -0.85036549768E+02  0.17672714069E+02  0.44155260108E+03  0.45001359884E+03  0.00000000000E+00 0. -1.
         22    1    1    2    0    0  0.26187543174E+02  0.27870792487E+02  0.58831239719E+02  0.70168962214E+02  0.00000000000E+00 0. -1.
</event>
<event>
 6    1  0.4069520E-005  0.8771042E+02  0.7818608E-02  0.1332885E+00
          2   -1    0    0  502    0  0.00000000000E+00  0.00000000000E+00  0.82332466466E+03  0.82332466466E+03  0.00000000000E+00 0. -1.
          1   -1    0    0  501    0 -0.00000000000E+00 -0.00000000000E+00 -0.10981617432E+02  0.10981617432E+02  0.00000000000E+00 0. -1.
          2    1    1    2  501    0 -0.17633669459E+02 -0.19467846748E+02  0.80913476825E+02  0.85070171550E+02  0.00000000000E+00 0. -1.
          1    1    1    2  502    0  0.12766317398E+02  0.28590967064E+02  0.23745113645E+03  0.23950671067E+03  0.00000000000E+00 0. -1.
         22    1    1    2    0    0 -0.11343497543E+02  0.51965532969E+02  0.13267680588E+03  0.14294133892E+03  0.00000000000E+00 0. -1.
         22    1    1    2    0    0  0.16210849603E+02 -0.61088653285E+02  0.36130162807E+03  0.36678806095E+03  0.00000000000E+00 0. -1.
</event>
<event>
 6    1  0.4069520E-005  0.1135854E+03  0.7818608E-02  0.1266759E+00
          2   -1    0    0  502    0  0.00000000000E+00  0.00000000000E+00  0.32683130172E+03  0.32683130172E+03  0.00000000000E+00 0.  1.
          1   -1    0    0  501    0 -0.00000000000E+00 -0.00000000000E+00 -0.10806724824E+04  0.10806724824E+04  0.00000000000E+00 0. -1.
          2    1    1    2  501    0  0.36666213599E+02 -0.30593504867E+02  0.26065273543E+02  0.54403788881E+02  0.00000000000E+00 0.  1.
          1    1    1    2  502    0  0.53951813258E+02 -0.84048094888E+01 -0.10435923822E+04  0.10450198559E+04  0.00000000000E+00 0. -1.
         22    1    1    2    0    0  0.20640618804E+02 -0.44002325453E+01  0.11718880895E+03  0.11907398596E+03  0.00000000000E+00 0.  1.
         22    1    1    2    0    0 -0.11125864566E+03  0.43398546901E+02  0.14649711908E+03  0.18900615335E+03  0.00000000000E+00 0.  1.
</event>
<event>
 6    1  0.4069520E-005  0.9125725E+02  0.7818608E-02  0.1301848E+00
          2   -1    0    0  502    0  0.00000000000E+00  0.00000000000E+00  0.90717997601E+02  0.90717997601E+02  0.00000000000E+00 0. -1.
          1   -1    0    0  501    0 -0.00000000000E+00 -0.00000000000E+00 -0.28669279512E+03  0.28669279512E+03  0.00000000000E+00 0.  1.
          2    1    1    2  501    0 -0.18963826292E+02  0.71684915421E+02 -0.14070032394E+02  0.75473966492E+02  0.00000000000E+00 0. -1.
          1    1    1    2  502    0  0.44129174518E+02  0.34207823341E+02 -0.98199658269E+02  0.11296341047E+03  0.00000000000E+00 0.  1.
         22    1    1    2    0    0 -0.32961875127E+02 -0.13131408283E+03 -0.46311194729E+02  0.14308948360E+03  0.00000000000E+00 0. -1.
         22    1    1    2    0    0  0.77965269014E+01  0.25421344065E+02 -0.37393912127E+02  0.45883932155E+02  0.00000000000E+00 0.  1.
</event>
<event>
 6    1  0.4069520E-005  0.1127080E+03  0.7818608E-02  0.1310284E+00
          2   -1    0    0  502    0  0.00000000000E+00  0.00000000000E+00  0.46382976509E+02  0.46382976509E+02  0.00000000000E+00 0. -1.
          1   -1    0    0  501    0 -0.00000000000E+00 -0.00000000000E+00 -0.12829653714E+04  0.12829653714E+04  0.00000000000E+00 0. -1.
          2    1    1    2  501    0  0.13827606806E+02 -0.27018083867E+02 -0.31625766733E+02  0.43833419754E+02  0.00000000000E+00 0. -1.
          1    1    1    2  502    0 -0.55381047151E+02  0.93146693743E+02 -0.11046120289E+04  0.11099149072E+04  0.00000000000E+00 0. -1.
         22    1    1    2    0    0  0.80943939727E+02 -0.59094179986E+02 -0.88937199129E+02  0.13399204781E+03  0.00000000000E+00 0.  1.
         22    1    1    2    0    0 -0.39390499382E+02 -0.70344298893E+01 -0.11407400089E+02  0.41607973060E+02  0.00000000000E+00 0. -1.
</event>
<event>
 6    1  0.4069520E-005  0.2306678E+03  0.7818608E-02  0.1129354E+00
          2   -1    0    0  502    0  0.00000000000E+00  0.00000000000E+00  0.48978284732E+02  0.48978284732E+02  0.00000000000E+00 0.  1.
          1   -1    0    0  501    0 -0.00000000000E+00 -0.00000000000E+00 -0.14772079722E+04  0.14772079722E+04  0.00000000000E+00 0.  1.
          2    1    1    2  501    0 -0.19489620352E+03 -0.48037611273E+02 -0.81838468875E+03  0.84264205985E+03  0.00000000000E+00 0.  1.
          1    1    1    2  502    0 -0.44383484379E+01  0.37123806171E+02 -0.26314172833E+03  0.26578458404E+03  0.00000000000E+00 0.  1.
         22    1    1    2    0    0  0.21128351924E+03  0.26308575240E+02 -0.32559641586E+03  0.38903199439E+03  0.00000000000E+00 0.  1.
         22    1    1    2    0    0 -0.11948967280E+02 -0.15394770138E+02 -0.21106854563E+02  0.28727618701E+02  0.00000000000E+00 0. -1.
</event>
<event>
 6    1  0.4069520E-005  0.8443155E+02  0.7818608E-02  0.1332715E+00
          2   -1    0    0  502    0  0.00000000000E+00  0.00000000000E+00  0.87361560637E+02  0.87361560637E+02  0.00000000000E+00 0. -1.
          1   -1    0    0  501    0 -0.00000000000E+00 -0.00000000000E+00 -0.33241576991E+03  0.33241576991E+03  0.00000000000E+00 0. -1.
          2    1    1    2  501    0  0.38756479776E+02  0.93398098292E+00  0.48838472031E+01  0.39074147574E+02  0.00000000000E+00 0. -1.
          1    1    1    2  502    0 -0.68685972056E+02 -0.45600042589E+02 -0.22780116741E+03  0.24226121958E+03  0.00000000000E+00 0. -1.
         22    1    1    2    0    0  0.45770675318E+02 -0.17146849000E+02  0.28855866754E+02  0.56759406232E+02  0.00000000000E+00 0.  1.
         22    1    1    2    0    0 -0.15841183038E+02  0.61812910606E+02 -0.50992755824E+02  0.81682557160E+02  0.00000000000E+00 0. -1.
</event>
<event>
 6    1  0.4069520E-005  0.1523860E+03  0.7818608E-02  0.1202829E+00
          2   -1    0    0  502    0  0.00000000000E+00  0.00000000000E+00  0.29332089625E+03  0.29332089625E+03  0.00000000000E+00 0. -1.
          1   -1    0    0  501    0 -0.00000000000E+00 -0.00000000000E+00 -0.51764773274E+03  0.51764773274E+03  0.00000000000E+00 0. -1.
          2    1    1    2  501    0 -0.13908866184E+03  0.34631291746E+02  0.26683571270E+02  0.14579778872E+03  0.00000000000E+00 0. -1.
          1    1    1    2  502    0  0.51277208212E+02 -0.10590161352E+02 -0.42784940400E+03  0.43104131600E+03  0.00000000000E+00 0. -1.
         22    1    1    2    0    0  0.11659685230E+03 -0.35363567287E+02  0.13178238602E+03  0.17947703230E+03  0.00000000000E+00 0.  1.
         22    1    1    2    0    0 -0.28785398670E+02  0.11322436894E+02  0.45056610225E+02  0.54652491972E+02  0.00000000000E+00 0. -1.
</event>
<event>
 6    1  0.4069520E-005  0.5448070E+02  0.7818608E-02  0.1498515E+00
          2   -1    0    0  502    0  0.00000000000E+00  0.00000000000E+00  0.47409932350E+02  0.47409932350E+02  0.00000000000E+00 0.  1.
          1   -1    0    0  501    0 -0.00000000000E+00 -0.00000000000E+00 -0.37153964615E+03  0.37153964615E+03  0.00000000000E+00 0.  1.
          2    1    1    2  501    0 -0.27271369141E+02  0.21158166428E+02 -0.15461343284E+03  0.15841940916E+03  0.00000000000E+00 0.  1.
          1    1    1    2  502    0  0.27616335638E+02 -0.25442039058E+02 -0.11443072032E+03  0.12043400308E+03  0.00000000000E+00 0.  1.
         22    1    1    2    0    0 -0.15329064459E+02  0.95803464834E+01  0.39892847206E+02  0.43797288890E+02  0.00000000000E+00 0.  1.
         22    1    1    2    0    0  0.14984097962E+02 -0.52964738536E+01 -0.94978407843E+02  0.96298877374E+02  0.00000000000E+00 0.  1.
</event>
<event>
 6    1  0.4069520E-005  0.1685758E+03  0.7818608E-02  0.1183204E+00
          2   -1    0    0  502    0  0.00000000000E+00  0.00000000000E+00  0.21765383049E+03  0.21765383049E+03  0.00000000000E+00 0. -1.
          1   -1    0    0  501    0 -0.00000000000E+00 -0.00000000000E+00 -0.28333595920E+03  0.28333595920E+03  0.00000000000E+00 0. -1.
          2    1    1    2  501    0 -0.14845845390E+03  0.42584781044E+02 -0.58454549488E+02  0.16513724736E+03  0.00000000000E+00 0. -1.
          1    1    1    2  502    0  0.16357628134E+02 -0.15499756043E+02 -0.11878646447E+03  0.12090508085E+03  0.00000000000E+00 0. -1.
         22    1    1    2    0    0 -0.18261826985E+02 -0.18559833526E+02 -0.23120715256E+01  0.26140149580E+02  0.00000000000E+00 0.  1.
         22    1    1    2    0    0  0.15036265275E+03 -0.85251914755E+01  0.11387095676E+03  0.18880731190E+03  0.00000000000E+00 0. -1.
</event>
<event>
 6    1  0.4069520E-005  0.1003984E+03  0.7818608E-02  0.1334927E+00
          2   -1    0    0  502    0  0.00000000000E+00  0.00000000000E+00  0.17044952103E+03  0.17044952103E+03  0.00000000000E+00 0.  1.
          1   -1    0    0  501    0 -0.00000000000E+00 -0.00000000000E+00 -0.38216232617E+03  0.38216232617E+03  0.00000000000E+00 0. -1.
          2    1    1    2  501    0 -0.91844172260E+01 -0.19307376427E+02 -0.11690578941E+02  0.24367969556E+02  0.00000000000E+00 0.  1.
          1    1    1    2  502    0 -0.31028282273E+02  0.53917395552E+02 -0.33356557148E+03  0.33931671094E+03  0.00000000000E+00 0. -1.
         22    1    1    2    0    0  0.73566600171E+02 -0.49461382411E+02  0.60676583860E+02  0.10742495445E+03  0.00000000000E+00 0.  1.
         22    1    1    2    0    0 -0.33353900673E+02  0.14851363287E+02  0.72866761427E+02  0.81502212255E+02  0.00000000000E+00 0.  1.
</event>
<event>
 6    1  0.4069520E-005  0.1344114E+03  0.7818608E-02  0.1323196E+00
          2   -1    0    0  502    0  0.00000000000E+00  0.00000000000E+00  0.39138717726E+02  0.39138717726E+02  0.00000000000E+00 0.  1.
          1   -1    0    0  501    0 -0.00000000000E+00 -0.00000000000E+00 -0.30225282322E+04  0.30225282322E+04  0.00000000000E+00 0. -1.
          2    1    1    2  501    0 -0.68823740472E+02 -0.61933401102E+02 -0.13607249404E+03  0.16458486279E+03  0.00000000000E+00 0.  1.
          1    1    1    2  502    0  0.99425537854E+02  0.66241490223E+02 -0.27066446899E+04  0.27092801350E+04  0.00000000000E+00 0. -1.
         22    1    1    2    0    0 -0.22292589614E+01  0.18576203162E+02  0.17418851341E+02  0.25562889146E+02  0.00000000000E+00 0.  1.
         22    1    1    2    0    0 -0.28372538421E+02 -0.22884292282E+02 -0.15809118189E+03  0.16223906299E+03  0.00000000000E+00 0.  1.
</event>
<event>
 6    1  0.4069520E-005  0.3115655E+03  0.7818608E-02  0.1159979E+00
          2   -1    0    0  502    0  0.00000000000E+00  0.00000000000E+00  0.35314916370E+03  0.35314916370E+03  0.00000000000E+00 0.  1.
          1   -1    0    0  501    0 -0.00000000000E+00 -0.00000000000E+00 -0.51801037612E+03  0.51801037612E+03  0.00000000000E+00 0.  1.
          2    1    1    2  501    0  0.22417280157E+03 -0.14215475643E+02  0.10865323726E+03  0.24952164371E+03  0.00000000000E+00 0.  1.
          1    1    1    2  502    0 -0.14681889972E+03 -0.17932996776E+02 -0.39821284771E+03  0.42479507267E+03  0.00000000000E+00 0.  1.
         22    1    1    2    0    0 -0.65258400791E+02  0.71942039812E+02  0.45222439724E+02  0.10714189200E+03  0.00000000000E+00 0. -1.
         22    1    1    2    0    0 -0.12095501062E+02 -0.39793567393E+02  0.79475958308E+02  0.89700931438E+02  0.00000000000E+00 0.  1.
</event>
<event>
 6    1  0.4069520E-005  0.1853797E+03  0.7818608E-02  0.1237699E+00
          2   -1    0    0  502    0  0.00000000000E+00  0.00000000000E+00  0.41666695324E+03  0.41666695324E+03  0.00000000000E+00 0. -1.
          1   -1    0    0  501    0 -0.00000000000E+00 -0.00000000000E+00 -0.92221393320E+02  0.92221393320E+02  0.00000000000E+00 0. -1.
          2    1    1    2  501    0 -0.84997100180E+00 -0.53278112729E+02 -0.17184093485E+01  0.53312593985E+02  0.00000000000E+00 0. -1.
          1    1    1    2  502    0 -0.21322304940E+02  0.10925847420E+03  0.99125349586E+01  0.11176006989E+03  0.00000000000E+00 0. -1.
         22    1    1    2    0    0 -0.16608046267E+02  0.32297770125E+02  0.61435250222E+02  0.71367101144E+02  0.00000000000E+00 0. -1.
         22    1    1    2    0    0  0.38780322209E+02 -0.88278131599E+02  0.25481618409E+03  0.27244858154E+03  0.00000000000E+00 0. -1.
</event>
<event>
 6    1  0.4069520E-005  0.8263101E+02  0.7818608E-02  0.1322686E+00
          2   -1    0    0  502    0  0.00000000000E+00  0.00000000000E+00  0.34525466390E+03  0.34525466390E+03  0.00000000000E+00 0. -1.
          1   -1    0    0  501    0 -0.00000000000E+00 -0.00000000000E+00 -0.10699592593E+03  0.10699592593E+03  0.00000000000E+00 0.  1.
          2    1    1    2  501    0  0.10290672325E+02  0.22715934259E+02 -0.41487667809E+02  0.48405972631E+02  0.00000000000E+00 0. -1.
          1    1    1    2  502    0  0.56025083309E+01 -0.68364893816E+02 -0.22083160600E+02  0.72061173930E+02  0.00000000000E+00 0.  1.
         22    1    1    2    0    0  0.80493512914E+01 -0.13594124192E+02 -0.63665124984E+01  0.17033048762E+02  0.00000000000E+00 0. -1.
         22    1    1    2    0    0 -0.23942531948E+02  0.59243083749E+02  0.30819607888E+03  0.31475039451E+03  0.00000000000E+00 0. -1.
</event>
<event>
 6    1  0.4069520E-005  0.1246321E+03  0.7818608E-02  0.1238742E+00
          2   -1    0    0  502    0  0.00000000000E+00  0.00000000000E+00  0.47081467550E+03  0.47081467550E+03  0.00000000000E+00 0.  1.
          1   -1    0    0  501    0 -0.00000000000E+00 -0.00000000000E+00 -0.19200747439E+03  0.19200747439E+03  0.00000000000E+00 0.  1.
          2    1    1    2  501    0  0.72654563221E+02 -0.21113377562E+02 -0.54018661001E+02  0.92964918142E+02  0.00000000000E+00 0.  1.
          1    1    1    2  502    0 -0.21629071095E+03  0.28331830267E+02  0.43206827340E+02  0.22237624463E+03  0.00000000000E+00 0.  1.
         22    1    1    2    0    0  0.11691146551E+03 -0.46058466069E+01  0.29734753969E+03  0.31953883011E+03  0.00000000000E+00 0.  1.
         22    1    1    2    0    0  0.26724682219E+02 -0.26126060983E+01 -0.77285049128E+01  0.27942157013E+02  0.00000000000E+00 0.  1.
</event>
<event>
 6    1  0.4069520E-005  0.1147936E+03  0.7818608E-02  0.1276899E+00
          2   -1    0    0  502    0  0.00000000000E+00  0.00000000000E+00  0.37607834714E+03  0.37607834714E+03  0.00000000000E+00 0.  1.
          1   -1    0    0  501    0 -0.00000000000E+00 -0.00000000000E+00 -0.10549151800E+03  0.10549151800E+03  0.00000000000E+00 0. -1.
          2    1    1    2  501    0  0.11953553221E+02 -0.25284144844E+02  0.23358417715E+00  0.27968374580E+02  0.00000000000E+00 0.  1.
          1    1    1    2  502    0 -0.21054167452E+02  0.21318538227E+02 -0.77422585752E+02  0.83018159602E+02  0.00000000000E+00 0. -1.
         22    1    1    2    0    0 -0.15514786707E+02  0.61733201571E+02  0.14626095426E+03  0.15951164071E+03  0.00000000000E+00 0. -1.
         22    1    1    2    0    0  0.24615400938E+02 -0.57767594954E+02  0.20151487645E+03  0.21107169024E+03  0.00000000000E+00 0.  1.
</event>
<event>
 6    1  0.4069520E-005  0.9668701E+02  0.7818608E-02  0.1292879E+00
          2   -1    0    0  502    0  0.00000000000E+00  0.00000000000E+00  0.11363781231E+03  0.11363781231E+03  0.00000000000E+00 0.  1.
          1   -1    0    0  501    0 -0.00000000000E+00 -0.00000000000E+00 -0.10696198712E+04  0.10696198712E+04  0.00000000000E+00 0. -1.
          2    1    1    2  501    0 -0.40266848907E+02 -0.47485101656E+02 -0.37955166455E+02  0.72916724150E+02  0.00000000000E+00 0.  1.
          1    1    1    2  502    0  0.40534773140E+02  0.51214871563E+01 -0.97068505508E+03  0.97154452992E+03  0.00000000000E+00 0. -1.
         22    1    1    2    0    0 -0.27203752443E+02 -0.35385651522E+02  0.85804913788E+01  0.45451219048E+02  0.00000000000E+00 0.  1.
         22    1    1    2    0    0  0.26935828210E+02  0.77749266021E+02  0.44077671231E+02  0.93345210425E+02  0.00000000000E+00 0.  1.
</event>
<event>
 6    1  0.4069520E-005  0.2562902E+03  0.7818608E-02  0.1199545E+00
          2   -1    0    0  502    0  0.00000000000E+00  0.00000000000E+00  0.10474094385E+03  0.10474094385E+03  0.00000000000E+00 0. -1.
          1   -1    0    0  501    0 -0.00000000000E+00 -0.00000000000E+00 -0.12069928438E+04  0.12069928438E+04  0.00000000000E+00 0. -1.
          2    1    1    2  501    0  0.11085698682E+03  0.89052967694E+02 -0.72188155093E+03  0.73575313534E+03  0.00000000000E+00 0. -1.
          1    1    1    2  502    0 -0.20301179541E+03 -0.11491539563E+03 -0.34516975531E+03  0.41660712573E+03  0.00000000000E+00 0. -1.
         22    1    1    2    0    0  0.64814852948E+02  0.11931463671E+02 -0.80888813151E+02  0.10433755355E+03  0.00000000000E+00 0. -1.
         22    1    1    2    0    0  0.27339955641E+02  0.13930964264E+02  0.45688219405E+02  0.55035973074E+02  0.00000000000E+00 0. -1.
</event>
<event>
 6    1  0.4069520E-005  0.2049939E+03  0.7818608E-02  0.1205290E+00
          2   -1    0    0  502    0  0.00000000000E+00  0.00000000000E+00  0.69850959125E+02  0.69850959125E+02  0.00000000000E+00 0. -1.
          1   -1    0    0  501    0 -0.00000000000E+00 -0.00000000000E+00 -0.10930555339E+04  0.10930555339E+04  0.00000000000E+00 0. -1.
          2    1    1    2  501    0 -0.78797642233E+02  0.31600236328E+02 -0.32576891322E+03  0.33664971139E+03  0.00000000000E+00 0. -1.
          1    1    1    2  502    0  0.15992524358E+03  0.29035393056E+02 -0.63130301178E+03  0.65189157861E+03  0.00000000000E+00 0. -1.
         22    1    1    2    0    0 -0.29079237101E+02 -0.70408628951E+02 -0.88593629659E+02  0.11684095291E+03  0.00000000000E+00 0. -1.
         22    1    1    2    0    0 -0.52048364248E+02  0.97729995676E+01  0.22460979834E+02  0.57524250161E+02  0.00000000000E+00 0. -1.
</event>
<event>
 6    1  0.4069520E-005  0.2240710E+03  0.7818608E-02  0.1234928E+00
          2   -1    0    0  502    0  0.00000000000E+00  0.00000000000E+00  0.11915616140E+03  0.11915616140E+03  0.00000000000E+00 0.  1.
          1   -1    0    0  501    0 -0.00000000000E+00 -0.00000000000E+00 -0.12193138446E+04  0.12193138446E+04  0.00000000000E+00 0.  1.
          2    1    1    2  501    0  0.16773610393E+03 -0.92230737517E+02 -0.18932587335E+03  0.26923260543E+03  0.00000000000E+00 0.  1.
          1    1    1    2  502    0 -0.15890840906E+03  0.13435260114E+03 -0.91297064700E+03  0.93638555424E+03  0.00000000000E+00 0.  1.
         22    1    1    2    0    0 -0.21608722357E+02  0.25947655955E+01  0.56950981403E+02  0.60967892969E+02  0.00000000000E+00 0. -1.
         22    1    1    2    0    0  0.12781027486E+02 -0.44716629217E+02 -0.54812144222E+02  0.71883953330E+02  0.00000000000E+00 0.  1.
</event>
<event>
 6    1  0.5532308E-005  0.7102354E+02  0.7818608E-02  0.1366932E+00
          2   -1    0    0  502    0  0.00000000000E+00  0.00000000000E+00  0.18852974036E+03  0.18852974036E+03  0.00000000000E+00 0. -1.
          1   -1    0    0  501    0 -0.00000000000E+00 -0.00000000000E+00 -0.11707102105E+04  0.11707102105E+04  0.00000000000E+00 0. -1.
          2    1    1    2  501    0  0.21743456129E+02 -0.74979176360E+02 -0.13278520277E+03  0.15403429763E+03  0.00000000000E+00 0. -1.
          1    1    1    2  502    0 -0.56741694863E+02  0.37912343593E+02 -0.99876482357E+03  0.10010934714E+04  0.00000000000E+00 0. -1.
         22    1    1    2    0    0  0.81494013455E+01 -0.16341156875E+02 -0.18453436347E+02  0.25961037409E+02  0.00000000000E+00 0. -1.
         22    1    1    2    0    0  0.26848837388E+02  0.53407989642E+02  0.16782299254E+03  0.17815114440E+03  0.00000000000E+00 0. -1.
</event>
<event>
 6    1  0.4069520E-005  0.3378156E+03  0.7818608E-02  0.1130525E+00
          2   -1    0    0  502    0  0.00000000000E+00  0.00000000000E+00  0.46920512275E+03  0.46920512275E+03  0.00000000000E+00 0. -1.
          1   -1    0    0  501    0 -0.00000000000E+00 -0.00000000000E+00 -0.53578177615E+03  0.53578177615E+03  0.00000000000E+00 0.  1.
          2    1    1    2  501    0 -0.40869360819E+02 -0.26206064442E+02 -0.83731625430E+02  0.96788674774E+02  0.00000000000E+00 0. -1.
          1    1    1    2  502    0  0.60484319521E+02 -0.19687039701E+01 -0.43393745911E+03  0.43813690455E+03  0.00000000000E+00 0.  1.
         22    1    1    2    0    0  0.48975054682E+02  0.12750501896E+02  0.28873264882E+03  0.29313422484E+03  0.00000000000E+00 0. -1.
         22    1    1    2    0    0 -0.68590013383E+02  0.15424266516E+02  0.16235978233E+03  0.17692709474E+03  0.00000000000E+00 0. -1.
</event>
<event>
 6    1  0.4069520E-005  0.5378629E+02  0.7818608E-02  0.1431073E+00
          2   -1    0    0  502    0  0.00000000000E+00  0.00000000000E+00  0.12500303661E+03  0.12500303661E+03  0.00000000000E+00 0.  1.
          1   -1    0    0  501    0 -0.00000000000E+00 -0.00000000000E+00 -0.63882437174E+03  0.63882437174E+03  0.00000000000E+00 0.  1.
          2    1    1    2  501    0 -0.66472258939E+02  0.91185047053E+01 -0.10242056987E+03  0.12244052217E+03  0.00000000000E+00 0.  1.
          1    1    1    2  502    0  0.27621799557E+02 -0.98627729677E+01 -0.48647660731E+03  0.48735995687E+03  0.00000000000E+00 0.  1.
         22    1    1    2    0    0  0.48419582489E+02 -0.57162109346E+01  0.10834578748E+03  0.11881052437E+03  0.00000000000E+00 0.  1.
         22    1    1    2    0    0 -0.95691231074E+01  0.64604791970E+01 -0.33269945427E+02  0.35216404944E+02  0.00000000000E+00 0. -1.
</event>
<event>
 6    1  0.4069520E-005  0.1122161E+03  0.7818608E-02  0.1260648E+00
          2   -1    0    0  502    0  0.00000000000E+00  0.00000000000E+00  0.26014320448E+03  0.26014320448E+03  0.00000000000E+00 0.  1.
          1   -1    0    0  501    0 -0.00000000000E+00 -0.00000000000E+00 -0.15975409854E+04  0.15975409854E+04  0.00000000000E+00 0.  1.
          2    1    1    2  501    0 -0.13031531378E+02  0.11092539749E+03 -0.12057429395E+03  0.16435457092E+03  0.00000000000E+00 0.  1.
          1    1    1    2  502    0  0.64412999223E+02 -0.17612238625E+02 -0.14261973858E+04  0.14277598568E+04  0.00000000000E+00 0.  1.
         22    1    1    2    0    0 -0.38786516038E+02 -0.96362625867E+02  0.22346366668E+03  0.24642678388E+03  0.00000000000E+00 0.  1.
         22    1    1    2    0    0 -0.12594951807E+02  0.30494670013E+01 -0.14089767860E+02  0.19142978304E+02  0.00000000000E+00 0. -1.
</event>
<event>
 6    1  0.7836824E-005  0.4882800E+02  0.7818608E-02  0.1526028E+00
          2   -1    0    0  502    0  0.00000000000E+00  0.00000000000E+00  0.97835980297E+02  0.97835980297E+02  0.00000000000E+00 0. -1.
          1   -1    0    0  501    0 -0.00000000000E+00 -0.00000000000E+00 -0.15016023535E+04  0.15016023535E+04  0.00000000000E+00 0. -1.
          2    1    1    2  501    0  0.65232986010E+01 -0.19618499677E+02 -0.94696096661E+02  0.96926723234E+02  0.00000000000E+00 0. -1.
          1    1    1    2  502    0  0.13823713148E+02  0.39674481890E+02 -0.13605973624E+04  0.13612458787E+04  0.00000000000E+00 0. -1.
         22    1    1    2    0    0 -0.15162526314E+02 -0.35385059014E+01 -0.42705922032E+02  0.45455681766E+02  0.00000000000E+00 0. -1.
         22    1    1    2    0    0 -0.51844854351E+01 -0.16517476312E+02  0.94233007945E+02  0.95810050096E+02  0.00000000000E+00 0. -1.
</event>
<event>
 6    1  0.4069520E-005  0.1651569E+03  0.7818608E-02  0.1274715E+00
          2   -1    0    0  502    0  0.00000000000E+00  0.00000000000E+00  0.81655825424E+02  0.81655825424E+02  0.00000000000E+00 0.  1.
          1   -1    0    0  501    0 -0.00000000000E+00 -0.00000000000E+00 -0.13047364471E+04  0.13047364471E+04  0.00000000000E+00 0.  1.
          2    1    1    2  501    0  0.44460725004E+02  0.21425509748E+02 -0.26878610812E+02  0.56198471999E+02  0.00000000000E+00 0.  1.
          1    1    1    2  502    0  0.46570191272E+02  0.23181656439E+02 -0.11657226473E+04  0.11668827972E+04  0.00000000000E+00 0.  1.
         22    1    1    2    0    0  0.15064617162E+02  0.19568905599E+02  0.17594610262E+02  0.30322517489E+02  0.00000000000E+00 0.  1.
         22    1    1    2    0    0 -0.10609553344E+03 -0.64176071785E+02 -0.48073973783E+02  0.13298848582E+03  0.00000000000E+00 0.  1.
</event>
<event>
 6    1  0.4069520E-005  0.4286433E+02  0.7818608E-02  0.1493397E+00
          2   -1    0    0  502    0  0.00000000000E+00  0.00000000000E+00  0.80113845263E+02  0.80113845263E+02  0.00000000000E+00 0.  1.
          1   -1    0    0  501    0 -0.00000000000E+00 -0.00000000000E+00 -0.43010622529E+03  0.43010622529E+03  0.00000000000E+00 0. -1.
          2    1    1    2  501    0 -0.34749805415E+02  0.29229345827E+02 -0.58315129169E+02  0.73909119355E+02  0.00000000000E+00 0.  1.
          1    1    1    2  502    0  0.19772527440E+02 -0.15866800549E+02 -0.31171519234E+03  0.31274441536E+03  0.00000000000E+00 0. -1.
         22    1    1    2    0    0  0.29372794039E+02 -0.25176244464E+02  0.64584272471E+02  0.75284344757E+02  0.00000000000E+00 0.  1.
         22    1    1    2    0    0 -0.14395516064E+02  0.11813699186E+02 -0.44546330987E+02  0.48282191081E+02  0.00000000000E+00 0.  1.
</event>
<event>
 6    1  0.4069520E-005  0.7656480E+02  0.7818608E-02  0.1432003E+00
          2   -1    0    0  502    0  0.00000000000E+00  0.00000000000E+00  0.69608619830E+02  0.69608619830E+02  0.00000000000E+00 0. -1.
          1   -1    0    0  501    0 -0.00000000000E+00 -0.00000000000E+00 -0.96838533422E+03  0.96838533422E+03  0.00000000000E+00 0. -1.
          2    1    1    2  501    0  0.12515863364E+02  0.59211934299E+02 -0.56189977797E+03  0.56514959124E+03  0.00000000000E+00 0. -1.
          1    1    1    2  502    0 -0.17533778196E+02 -0.60749961250E+02 -0.34059392783E+03  0.34641335835E+03  0.00000000000E+00 0. -1.
         22    1    1    2    0    0 -0.10789193388E+02 -0.47272353339E+01 -0.59660490067E+02  0.60812231689E+02  0.00000000000E+00 0.  1.
         22    1    1    2    0    0  0.15807108220E+02  0.62652622851E+01  0.63377481475E+02  0.65618772770E+02  0.00000000000E+00 0. -1.
</event>
<event>
 6    1  0.4069520E-005  0.2495022E+03  0.7818608E-02  0.1235494E+00
          2   -1    0    0  502    0  0.00000000000E+00  0.00000000000E+00  0.63242256009E+02  0.63242256009E+02  0.00000000000E+00 0.  1.
          1   -1    0    0  501    0 -0.00000000000E+00 -0.00000000000E+00 -0.11263237506E+04  0.11263237506E+04  0.00000000000E+00 0. -1.
          2    1    1    2  501    0 -0.36002719405E+02 -0.25677454667E+02 -0.61381778245E+02  0.75652165754E+02  0.00000000000E+00 0.  1.
          1    1    1    2  502    0  0.20824752862E+03  0.13607714428E+03 -0.52410842662E+03  0.58014969209E+03  0.00000000000E+00 0. -1.
         22    1    1    2    0    0 -0.17330863963E+03 -0.94853487439E+02 -0.47897357080E+03  0.51812040123E+03  0.00000000000E+00 0.  1.
         22    1    1    2    0    0  0.10638304206E+01 -0.15546202178E+02  0.13822810362E+01  0.15643747575E+02  0.00000000000E+00 0.  1.
</event>
<event>
 6    1  0.4069520E-005  0.7099627E+02  0.7818608E-02  0.1379504E+00
          2   -1    0    0  502    0  0.00000000000E+00  0.00000000000E+00  0.27588577319E+03  0.27588577319E+03  0.00000000000E+00 0.  1.
          1   -1    0    0  501    0 -0.00000000000E+00 -0.00000000000E+00 -0.38452604795E+03  0.38452604795E+03  0.00000000000E+00 0. -1.
          2    1    1    2  501    0  0.37357760683E+02  0.18543304698E+02  0.39865254915E+02  0.57694843633E+02  0.00000000000E+00 0.  1.
          1    1    1    2  502    0 -0.37540697060E+02 -0.40648911677E+02 -0.35561717139E+03  0.35989611077E+03  0.00000000000E+00 0. -1.
         22    1    1    2    0    0  0.19430052068E+02  0.66784815677E+02  0.76242384319E+02  0.10320193649E+03  0.00000000000E+00 0.  1.
         22    1    1    2    0    0 -0.19247115692E+02 -0.44679208699E+02  0.13086925740E+03  0.13961893026E+03  0.00000000000E+00 0.  1.
</event>
<event>
 6    1  0.4069520E-005  0.2484902E+03  0.7818608E-02  0.1183552E+00
          2   -1    0    0  502    0  0.00000000000E+00  0.00000000000E+00  0.72917831351E+03  0.72917831351E+03  0.00000000000E+00 0.  1.
          1   -1    0    0  501    0 -0.00000000000E+00 -0.00000000000E+00 -0.14406318150E+03  0.14406318150E+03  0.00000000000E+00 0. -1.
          2    1    1    2  501    0 -0.57725336895E+02  0.97374038880E+02  0.21819897901E+03  0.24581438609E+03  0.00000000000E+00 0.  1.
          1    1    1    2  502    0  0.17666523268E+02  0.35981169561E+02 -0.10948393402E+03  0.11659109064E+03  0.00000000000E+00 0. -1.
         22    1    1    2    0    0  0.43424794411E+02  0.28934238559E+01  0.72483855443E+02  0.84545809897E+02  0.00000000000E+00 0.  1.
         22    1    1    2    0    0 -0.33659807836E+01 -0.13624863230E+03  0.40391623159E+03  0.42629020839E+03  0.00000000000E+00 0. -1.
</event>
<event>
 6    1  0.4069520E-005  0.1069419E+03  0.7818608E-02  0.1360346E+00
          2   -1    0    0  502    0  0.00000000000E+00  0.00000000000E+00  0.21031452218E+03  0.21031452218E+03  0.00000000000E+00 0. -1.
          1   -1    0    0  501    0 -0.00000000000E+00 -0.00000000000E+00 -0.51866410372E+02  0.51866410372E+02  0.00000000000E+00 0. -1.
          2    1    1    2  501    0 -0.10338282296E+02 -0.47442810334E+02  0.20482958011E+02  0.52699638538E+02  0.00000000000E+00 0. -1.
          1    1    1    2  502    0 -0.20270341492E+02  0.23171842354E+02  0.23855543552E+02  0.38947502878E+02  0.00000000000E+00 0. -1.
         22    1    1    2    0    0  0.45913133229E+02  0.36432040002E+02  0.40495392316E+01  0.58751239217E+02  0.00000000000E+00 0. -1.
         22    1    1    2    0    0 -0.15304509441E+02 -0.12161072022E+02  0.11006007101E+03  0.11178255192E+03  0.00000000000E+00 0. -1.
</event>
<event>
 6    1  0.4069520E-005  0.1008000E+03  0.7818608E-02  0.1280267E+00
          2   -1    0    0  502    0  0.00000000000E+00  0.00000000000E+00  0.33975962202E+03  0.33975962202E+03  0.00000000000E+00 0. -1.
          1   -1    0    0  501    0 -0.00000000000E+00 -0.00000000000E+00 -0.29179695430E+03  0.29179695430E+03  0.00000000000E+00 0. -1.
          2    1    1    2  501    0 -0.65532006266E+02  0.29076001619E+01  0.76307628375E+02  0.10062679629E+03  0.00000000000E+00 0. -1.
          1    1    1    2  502    0  0.29891722121E+01 -0.20341767650E+02 -0.25905985340E+03  0.25987445104E+03  0.00000000000E+00 0. -1.
         22    1    1    2    0    0  0.96448427369E+02  0.27639419238E+00  0.20055506653E+03  0.22254147984E+03  0.00000000000E+00 0. -1.
         22    1    1    2    0    0 -0.33905593314E+02  0.17157773296E+02  0.30159826208E+02  0.48513849150E+02  0.00000000000E+00 0. -1.
</event>
<event>
 6    1  0.4069520E-005  0.1718651E+03  0.7818608E-02  0.1179348E+00
          2   -1    0    0  502    0  0.00000000000E+00  0.00000000000E+00  0.94844316825E+03  0.94844316825E+03  0.00000000000E+00 0. -1.
          1   -1    0    0  501    0 -0.00000000000E+00 -0.00000000000E+00 -0.44069873434E+03  0.44069873434E+03  0.00000000000E+00 0.  1.
          2    1    1    2  501    0 -0.18736721882E+03 -0.19900053602E+02  0.55436470751E+03  0.58551064530E+03  0.00000000000E+00 0. -1.
          1    1    1    2  502    0  0.10545216180E+03 -0.48692508601E+02 -0.39874126622E+03  0.41531399712E+03  0.00000000000E+00 0.  1.
         22    1    1    2    0    0 -0.32929091532E+02  0.19320436569E+02  0.69390268401E+02  0.79199833883E+02  0.00000000000E+00 0. -1.
         22    1    1    2    0    0  0.11484414855E+03  0.49272125634E+02  0.28273072422E+03  0.30911742629E+03  0.00000000000E+00 0. -1.
</event>
<event>
 6    1  0.4069520E-005  0.3380979E+03  0.7818608E-02  0.1176326E+00
          2   -1    0    0  502    0  0.00000000000E+00  0.00000000000E+00  0.19411926634E+03  0.19411926634E+03  0.00000000000E+00 0.  1.
          1   -1    0    0  501    0 -0.00000000000E+00 -0.00000000000E+00 -0.20849308387E+04  0.20849308387E+04  0.00000000000E+00 0.  1.
          2    1    1    2  501    0  0.10935901441E+03  0.19566254556E+01 -0.46804388812E+02  0.11897005181E+03  0.00000000000E+00 0.  1.
          1    1    1    2  502    0 -0.31222298437E+03  0.81809508205E+02 -0.18755478489E+04  0.19031173692E+04  0.00000000000E+00 0.  1.
         22    1    1    2    0    0  0.10125731701E+02  0.19943516831E+02  0.30834291514E+02  0.38092359329E+02  0.00000000000E+00 0.  1.
         22    1    1    2    0    0  0.19273823826E+03 -0.10370965049E+03  0.70637374325E+00  0.21887032475E+03  0.00000000000E+00 0.  1.
</event>
<event>
 6    1  0.4069520E-005  0.8723577E+02  0.7818608E-02  0.1348899E+00
          2   -1    0    0  502    0  0.00000000000E+00  0.00000000000E+00  0.19157675565E+03  0.19157675565E+03  0.00000000000E+00 0. -1.
          1   -1    0    0  501    0 -0.00000000000E+00 -0.00000000000E+00 -0.24973120562E+03  0.24973120562E+03  0.00000000000E+00 0.  1.
          2    1    1    2  501    0 -0.15218313242E+02 -0.24921875842E+02 -0.56493081290E+01  0.29742421484E+02  0.00000000000E+00 0. -1.
          1    1    1    2  502    0  0.59731235833E+02  0.25202634152E+02 -0.20146392403E+03  0.21163814871E+03  0.00000000000E+00 0.  1.
         22    1    1    2    0    0  0.32604129314E+02  0.29129805497E+02  0.84730571023E+02  0.95345920114E+02  0.00000000000E+00 0. -1.
         22    1    1    2    0    0 -0.77117051905E+02 -0.29410563807E+02  0.64228211165E+02  0.10458147096E+03  0.00000000000E+00 0. -1.
</event>
<event>
 6    1  0.4069520E-005  0.2368205E+03  0.7818608E-02  0.1122705E+00
          2   -1    0    0  502    0  0.00000000000E+00  0.00000000000E+00  0.41310163408E+03  0.41310163408E+03  0.00000000000E+00 0. -1.
          1   -1    0    0  501    0 -0.00000000000E+00 -0.00000000000E+00 -0.23988044190E+03  0.23988044190E+03  0.00000000000E+00 0. -1.
          2    1    1    2  501    0 -0.12700840795E+03  0.19844134541E+03  0.25750264711E+03  0.34902394835E+03  0.00000000000E+00 0. -1.
          1    1    1    2  502    0  0.39826712488E-01 -0.57054456427E+02 -0.48288467996E+02  0.74746161947E+02  0.00000000000E+00 0. -1.
         22    1    1    2    0    0 -0.13154455102E+02  0.21751587068E+01  0.17110625301E+02  0.21692037770E+02  0.00000000000E+00 0. -1.
         22    1    1    2    0    0  0.14012303634E+03 -0.14356204769E+03 -0.53103612225E+02  0.20751992791E+03  0.00000000000E+00 0. -1.
</event>
<event>
 6    1  0.4069520E-005  0.9597769E+02  0.7818608E-02  0.1292328E+00
          2   -1    0    0  502    0  0.00000000000E+00  0.00000000000E+00  0.95084530750E+02  0.95084530750E+02  0.00000000000E+00 0.  1.
          1   -1    0    0  501    0 -0.00000000000E+00 -0.00000000000E+00 -0.69696237453E+03  0.69696237453E+03  0.00000000000E+00 0.  1.
          2    1    1    2  501    0  0.13517022309E+01  0.73534434220E+02 -0.25540075260E+02  0.77855221785E+02  0.00000000000E+00 0.  1.
          1    1    1    2  502    0 -0.30385616360E+02 -0.22062621479E+02 -0.57469772543E+03  0.57592318981E+03  0.00000000000E+00 0.  1.
         22    1    1    2    0    0 -0.73207140417E+01  0.28443218565E+02 -0.33791139371E+02  0.44771091526E+02  0.00000000000E+00 0.  1.
         22    1    1    2    0    0  0.36354628171E+02 -0.79915031306E+02  0.32151096282E+02  0.93497402157E+02  0.00000000000E+00 0. -1.
</event>
<event>
 6    1  0.4069520E-005  0.7085491E+02  0.7818608E-02  0.1459498E+00
          2   -1    0    0  502    0  0.00000000000E+00  0.00000000000E+00  0.73415311190E+02  0.73415311190E+02  0.00000000000E+00 0. -1.
          1   -1    0    0  501    0 -0.00000000000E+00 -0.00000000000E+00 -0.19203132279E+03  0.19203132279E+03  0.00000000000E+00 0. -1.
          2    1    1    2  501    0  0.48551191584E+02  0.17135803477E+02 -0.98458240946E+02  0.11110751179E+03  0.00000000000E+00 0. -1.
          1    1    1    2  502    0 -0.20630593756E+02 -0.87524603906E+01 -0.12805731886E+02  0.25811116418E+02  0.00000000000E+00 0. -1.
         22    1    1    2    0    0 -0.14849562954E+02 -0.14114056824E+02 -0.65512961491E+02  0.68641563526E+02  0.00000000000E+00 0. -1.
         22    1    1    2    0    0 -0.13071034874E+02  0.57307137373E+01  0.58160922726E+02  0.59886442246E+02  0.00000000000E+00 0. -1.
</event>
<event>
 6    1  0.4069520E-005  0.1412987E+03  0.7818608E-02  0.1271604E+00
          2   -1    0    0  502    0  0.00000000000E+00  0.00000000000E+00  0.10497963154E+03  0.10497963154E+03  0.00000000000E+00 0. -1.
          1   -1    0    0  501    0 -0.00000000000E+00 -0.00000000000E+00 -0.36717389744E+03  0.36717389744E+03  0.00000000000E+00 0. -1.
          2    1    1    2  501    0  0.70631375266E+02  0.50640540511E+02 -0.20421930668E+03  0.22194319259E+03  0.00000000000E+00 0. -1.
          1    1    1    2  502    0 -0.58530253026E+02  0.23786227709E+02 -0.77588253988E+02  0.10005754497E+03  0.00000000000E+00 0. -1.
         22    1    1    2    0    0 -0.28226575848E+02 -0.35787547521E+02 -0.50788341078E+02  0.68241803399E+02  0.00000000000E+00 0.  1.
         22    1    1    2    0    0  0.16125453609E+02 -0.38639220699E+02  0.70401635848E+02  0.81910988032E+02  0.00000000000E+00 0. -1.
</event>
<event>
 6    1  0.4069520E-005  0.5663066E+03  0.7818608E-02  0.1118794E+00
          2   -1    0    0  502    0  0.00000000000E+00  0.00000000000E+00  0.40394744995E+03  0.40394744995E+03  0.00000000000E+00 0. -1.
          1   -1    0    0  501    0 -0.00000000000E+00 -0.00000000000E+00 -0.24823102002E+03  0.24823102002E+03  0.00000000000E+00 0. -1.
          2    1    1    2  501    0  0.18266479689E+03 -0.73445072011E+02 -0.12609751838E+03  0.23379732840E+03  0.00000000000E+00 0. -1.
          1    1    1    2  502    0 -0.25297738744E+02 -0.14036143141E+02 -0.26299473163E+02  0.39097969110E+02  0.00000000000E+00 0. -1.
         22    1    1    2    0    0 -0.17033633589E+03  0.10099537563E+03  0.29854314342E+03  0.35824927314E+03  0.00000000000E+00 0. -1.
         22    1    1    2    0    0  0.12969277752E+02 -0.13514160479E+02  0.95702780600E+01  0.21033899329E+02  0.00000000000E+00 0. -1.
</event>
<event>
 6    1  0.4069520E-005  0.2483766E+03  0.7818608E-02  0.1169964E+00
          2   -1    0    0  502    0  0.00000000000E+00  0.00000000000E+00  0.53327960356E+03  0.53327960356E+03  0.00000000000E+00 0.  1.
          1   -1    0    0  501    0 -0.00000000000E+00 -0.00000000000E+00 -0.50741748389E+03  0.50741748389E+03  0.00000000000E+00 0.  1.
          2    1    1    2  501    0 -0.42599430903E+02 -0.16335991539E+03  0.17292323776E+03  0.24166840842E+03  0.00000000000E+00 0.  1.
          1    1    1    2  502    0  0.35536893585E+02  0.24035028458E+03 -0.42299593095E+03  0.48780804391E+03  0.00000000000E+00 0.  1.
         22    1    1    2    0    0 -0.49297411454E+02 -0.44209502547E+02  0.75379754067E+02  0.10033355478E+03  0.00000000000E+00 0. -1.
         22    1    1    2    0    0  0.56359948772E+02 -0.32780866645E+02  0.20055505880E+03  0.21088708034E+03  0.00000000000E+00 0.  1.
</event>
<event>
 6    1  0.4069520E-005  0.2004556E+03  0.7818608E-02  0.1240376E+00
          2   -1    0    0  502    0  0.00000000000E+00  0.00000000000E+00  0.18758592421E+03  0.18758592421E+03  0.00000000000E+00 0. -1.
          1   -1    0    0  501    0 -0.00000000000E+00 -0.00000000000E+00 -0.45886216797E+03  0.45886216797E+03  0.00000000000E+00 0. -1.
          2    1    1    2  501    0 -0.88803807479E+02 -0.46074206911E+02 -0.91896820546E+02  0.13584540622E+03  0.00000000000E+00 0. -1.
          1    1    1    2  502    0  0.12503243772E+03  0.94469242097E+02 -0.29439507003E+03  0.33350563030E+03  0.00000000000E+00 0. -1.
         22    1    1    2    0    0 -0.62271791695E+02 -0.56250061261E+02  0.32120866024E+02  0.89853188407E+02  0.00000000000E+00 0. -1.
         22    1    1    2    0    0  0.26043161458E+02  0.78550260748E+01  0.82894780784E+02  0.87243867261E+02  0.00000000000E+00 0.  1.
</event>
<event>
 6    1  0.4069520E-005  0.4618090E+03  0.7818608E-02  0.1127605E+00
          2   -1    0    0  502    0  0.00000000000E+00  0.00000000000E+00  0.97895647657E+02  0.97895647657E+02  0.00000000000E+00 0.  1.
          1   -1    0    0  501    0 -0.00000000000E+00 -0.00000000000E+00 -0.26070909755E+04  0.26070909755E+04  0.00000000000E+00 0.  1.
          2    1    1    2  501    0 -0.12011962643E+03 -0.10025771833E+03 -0.60499234284E+03  0.62489684719E+03  0.00000000000E+00 0.  1.
          1    1    1    2  502    0 -0.19882137498E+02  0.32231233010E+02 -0.18762172748E+04  0.18765994283E+04  0.00000000000E+00 0.  1.
         22    1    1    2    0    0  0.15965961541E+03  0.48448082915E+02 -0.42503672942E+02  0.17217715222E+03  0.00000000000E+00 0.  1.
         22    1    1    2    0    0 -0.19657851485E+02  0.19578402403E+02  0.14517962803E+02  0.31313195455E+02  0.00000000000E+00 0. -1.
</event>
<event>
 6    1  0.4069520E-005  0.1255472E+03  0.7818608E-02  0.1329053E+00
          2   -1    0    0  502    0  0.00000000000E+00  0.00000000000E+00  0.88341930828E+02  0.88341930828E+02  0.00000000000E+00 0. -1.
          1   -1    0    0  501    0 -0.00000000000E+00 -0.00000000000E+00 -0.52544058179E+03  0.52544058179E+03  0.00000000000E+00 0. -1.
          2    1    1    2  501    0  0.79583821675E+02  0.24117356753E+02 -0.21131395110E+03  0.22708768681E+03  0.00000000000E+00 0. -1.
          1    1    1    2  502    0 -0.10642610214E+03 -0.30226872974E+02 -0.23021429015E+03  0.25541886864E+03  0.00000000000E+00 0. -1.
         22    1    1    2    0    0  0.38598009075E+02  0.23145136336E+02 -0.53410495663E+02  0.69844002517E+02  0.00000000000E+00 0.  1.
         22    1    1    2    0    0 -0.11755728613E+02 -0.17035620115E+02  0.57840085962E+02  0.61431954649E+02  0.00000000000E+00 0. -1.
</event>
<event>
 6    1  0.4069520E-005  0.9010423E+02  0.7818608E-02  0.1305274E+00
          2   -1    0    0  502    0  0.00000000000E+00  0.00000000000E+00  0.34684506917E+02  0.34684506917E+02  0.00000000000E+00 0. -1.
          1   -1    0    0  501    0 -0.00000000000E+00 -0.00000000000E+00 -0.10917003969E+04  0.10917003969E+04  0.00000000000E+00 0. -1.
          2    1    1    2  501    0  0.10670377487E+03  0.70109879097E+01 -0.55641146277E+03  0.56659382756E+03  0.00000000000E+00 0. -1.
          1    1    1    2  502    0 -0.65811032089E+02  0.40955761465E+02 -0.31876347273E+03  0.32805276693E+03  0.00000000000E+00 0. -1.
         22    1    1    2    0    0  0.31674251821E+02 -0.10207997736E+02 -0.13159244960E+03  0.13573516213E+03  0.00000000000E+00 0.  1.
         22    1    1    2    0    0 -0.72566994599E+02 -0.37758751638E+02 -0.50248504884E+02  0.96003147206E+02  0.00000000000E+00 0.  1.
</event>
<event>
 6    1  0.4069520E-005  0.8906009E+02  0.7818608E-02  0.1432147E+00
          2   -1    0    0  502    0  0.00000000000E+00  0.00000000000E+00  0.49555438428E+02  0.49555438428E+02  0.00000000000E+00 0. -1.
          1   -1    0    0  501    0 -0.00000000000E+00 -0.00000000000E+00 -0.43032678065E+03  0.43032678065E+03  0.00000000000E+00 0. -1.
          2    1    1    2  501    0 -0.51960899478E+02  0.31823528755E+01 -0.90670952239E+02  0.10455278105E+03  0.00000000000E+00 0. -1.
          1    1    1    2  502    0  0.81325592739E+02 -0.27791248039E+01 -0.20053052134E+03  0.21641179625E+03  0.00000000000E+00 0. -1.
         22    1    1    2    0    0  0.10625461107E+02 -0.18204363013E+01  0.30503343574E+02  0.32352254655E+02  0.00000000000E+00 0. -1.
         22    1    1    2    0    0 -0.39990154368E+02  0.14172082297E+01 -0.12007321222E+03  0.12656538713E+03  0.00000000000E+00 0. -1.
</event>
<event>
 6    1  0.4069520E-005  0.2398791E+03  0.7818608E-02  0.1228096E+00
          2   -1    0    0  502    0  0.00000000000E+00  0.00000000000E+00  0.22680267795E+03  0.22680267795E+03  0.00000000000E+00 0. -1.
          1   -1    0    0  501    0 -0.00000000000E+00 -0.00000000000E+00 -0.16932603892E+03  0.16932603892E+03  0.00000000000E+00 0. -1.
          2    1    1    2  501    0 -0.54017971973E+02 -0.62703358579E+02  0.10350957542E+02  0.83407402520E+02  0.00000000000E+00 0. -1.
          1    1    1    2  502    0  0.20399012930E+02 -0.90977812998E+02 -0.28785787463E+02  0.97579217799E+02  0.00000000000E+00 0. -1.
         22    1    1    2    0    0  0.14420791611E+02  0.16063504793E+03  0.28848867423E+02  0.16384088319E+03  0.00000000000E+00 0. -1.
         22    1    1    2    0    0  0.19198167433E+02 -0.69538763535E+01  0.47062601527E+02  0.51301213354E+02  0.00000000000E+00 0. -1.
</event>
<event>
 6    1  0.4069520E-005  0.2539761E+03  0.7818608E-02  0.1222450E+00
          2   -1    0    0  502    0  0.00000000000E+00  0.00000000000E+00  0.48521697146E+03  0.48521697146E+03  0.00000000000E+00 0.  1.
          1   -1    0    0  501    0 -0.00000000000E+00 -0.00000000000E+00 -0.50789797289E+03  0.50789797289E+03  0.00000000000E+00 0.  1.
          2    1    1    2  501    0  0.54851852814E+02  0.77697559766E+02  0.12895294441E+03  0.16023263844E+03  0.00000000000E+00 0.  1.
          1    1    1    2  502    0  0.93045085263E+02 -0.44295885257E+02 -0.45790736286E+03  0.46935984735E+03  0.00000000000E+00 0.  1.
         22    1    1    2    0    0 -0.14628155085E+03 -0.52683275177E+02  0.18932999674E+03  0.24498911664E+03  0.00000000000E+00 0.  1.
         22    1    1    2    0    0 -0.16153872247E+01  0.19281600668E+02  0.11694342029E+03  0.11853334193E+03  0.00000000000E+00 0. -1.
</event>
<event>
 6    1  0.4069520E-005  0.4514121E+02  0.7818608E-02  0.1482581E+00
          2   -1    0    0  502    0  0.00000000000E+00  0.00000000000E+00  0.17101932423E+03  0.17101932423E+03  0.00000000000E+00 0. -1.
          1   -1    0    0  501    0 -0.00000000000E+00 -0.00000000000E+00 -0.12241224059E+04  0.12241224059E+04  0.00000000000E+00 0.  1.
          2    1    1    2  501    0 -0.24226159405E+02 -0.71242366557E+00 -0.34231925246E+01  0.24477185174E+02  0.00000000000E+00 0. -1.
          1    1    1    2  502    0  0.21431313084E+02  0.10718658195E+01 -0.11846267195E+04  0.11848210475E+04  0.00000000000E+00 0.  1.
         22    1    1    2    0    0 -0.26538328482E+02 -0.25389333975E+02 -0.81680833307E+01  0.37624709216E+02  0.00000000000E+00 0. -1.
         22    1    1    2    0    0  0.29333174803E+02  0.25029891821E+02  0.14311491375E+03  0.14821878817E+03  0.00000000000E+00 0. -1.
</event>
<event>
 6    1  0.4069520E-005  0.1722255E+03  0.7818608E-02  0.1261917E+00
          2   -1    0    0  502    0  0.00000000000E+00  0.00000000000E+00  0.38979559268E+03  0.38979559268E+03  0.00000000000E+00 0.  1.
          1   -1    0    0  501    0 -0.00000000000E+00 -0.00000000000E+00 -0.13458917301E+03  0.13458917301E+03  0.00000000000E+00 0.  1.
          2    1    1    2  501    0 -0.94195473485E+02 -0.85271721939E+02  0.16793771430E+03  0.21058758195E+03  0.00000000000E+00 0.  1.
          1    1    1    2  502    0  0.70193252518E+02  0.86176303228E+02 -0.55886529063E+02  0.12440559500E+03  0.00000000000E+00 0.  1.
         22    1    1    2    0    0  0.19478845315E+02 -0.28448315142E+02 -0.82365108968E+01  0.35448161602E+02  0.00000000000E+00 0.  1.
         22    1    1    2    0    0  0.45233756524E+01  0.27543733854E+02  0.15139174534E+03  0.15394342713E+03  0.00000000000E+00 0.  1.
</event>
<event>
 6    1  0.4069520E-005  0.1250132E+03  0.7818608E-02  0.1272614E+00
          2   -1    0    0  502    0  0.00000000000E+00  0.00000000000E+00  0.35835841686E+03  0.35835841686E+03  0.00000000000E+00 0.  1.
          1   -1    0    0  501    0 -0.00000000000E+00 -0.00000000000E+00 -0.17071865711E+03  0.17071865711E+03  0.00000000000E+00 0.  1.
          2    1    1    2  501    0  0.35870661868E+02 -0.46235364116E+02  0.66386604015E+02  0.88496296365E+02  0.00000000000E+00 0.  1.
          1    1    1    2  502    0 -0.60619039026E+02  0.94519474374E+02 -0.11938157622E+03  0.16389191459E+03  0.00000000000E+00 0.  1.
         22    1    1    2    0    0 -0.50034046043E+02 -0.31810683575E+02  0.91236947550E+02  0.10880949385E+03  0.00000000000E+00 0. -1.
         22    1    1    2    0    0  0.74782423200E+02 -0.16473426684E+02  0.14939778441E+03  0.16787936917E+03  0.00000000000E+00 0.  1.
</event>
<event>
 6    1  0.4069520E-005  0.1261462E+03  0.7818608E-02  0.1265508E+00
          2   -1    0    0  502    0  0.00000000000E+00  0.00000000000E+00  0.46013121810E+02  0.46013121810E+02  0.00000000000E+00 0. -1.
          1   -1    0    0  501    0 -0.00000000000E+00 -0.00000000000E+00 -0.71310809781E+03  0.71310809781E+03  0.00000000000E+00 0. -1.
          2    1    1    2  501    0 -0.26455598729E+02 -0.42644246730E+02 -0.31896271547E+03  0.32288642638E+03  0.00000000000E+00 0. -1.
          1    1    1    2  502    0  0.47160524599E+01  0.91630509877E+02 -0.40081872387E+02  0.10012466222E+03  0.00000000000E+00 0. -1.
         22    1    1    2    0    0  0.66178490673E+02  0.24196394313E+01 -0.16267652114E+03  0.17563911243E+03  0.00000000000E+00 0.  1.
         22    1    1    2    0    0 -0.44438944405E+02 -0.51405902578E+02 -0.14537386700E+03  0.16047101859E+03  0.00000000000E+00 0. -1.
</event>
<event>
 6    1  0.4069520E-005  0.1126228E+03  0.7818608E-02  0.1292326E+00
          2   -1    0    0  502    0  0.00000000000E+00  0.00000000000E+00  0.19086583889E+03  0.19086583889E+03  0.00000000000E+00 0.  1.
          1   -1    0    0  501    0 -0.00000000000E+00 -0.00000000000E+00 -0.83759828528E+03  0.83759828528E+03  0.00000000000E+00 0.  1.
          2    1    1    2  501    0  0.34102042297E+02  0.61588984286E+02  0.28516013580E+02  0.75956009010E+02  0.00000000000E+00 0.  1.
          1    1    1    2  502    0 -0.35389795462E+02 -0.10070199245E+03 -0.77996790360E+03  0.78723774017E+03  0.00000000000E+00 0.  1.
         22    1    1    2    0    0 -0.55770957305E+02 -0.20014743283E+01  0.59931739915E+02  0.81891507664E+02  0.00000000000E+00 0.  1.
         22    1    1    2    0    0  0.57058710471E+02  0.41114482493E+02  0.44787703719E+02  0.83378867321E+02  0.00000000000E+00 0.  1.
</event>
<event>
 6    1  0.4069520E-005  0.7879870E+02  0.7818608E-02  0.1350623E+00
          2   -1    0    0  502    0  0.00000000000E+00  0.00000000000E+00  0.35876568460E+03  0.35876568460E+03  0.00000000000E+00 0. -1.
          1   -1    0    0  501    0 -0.00000000000E+00 -0.00000000000E+00 -0.54947863767E+02  0.54947863767E+02  0.00000000000E+00 0. -1.
          2    1    1    2  501    0 -0.46142771268E+02 -0.40625723181E+02  0.39470306999E+02  0.73058263454E+02  0.00000000000E+00 0. -1.
          1    1    1    2  502    0 -0.12191773539E+02  0.46485529133E+02  0.65347329657E+01  0.48499963873E+02  0.00000000000E+00 0. -1.
         22    1    1    2    0    0  0.10578261183E+02 -0.35379591329E+02  0.10274308473E+02  0.38329838336E+02  0.00000000000E+00 0. -1.
         22    1    1    2    0    0  0.47756283624E+02  0.29519785378E+02  0.24753847240E+03  0.25382548271E+03  0.00000000000E+00 0. -1.
</event>
<event>
 6    1  0.4069520E-005  0.1983211E+03  0.7818608E-02  0.1194377E+00
          2   -1    0    0  502    0  0.00000000000E+00  0.00000000000E+00  0.31748908034E+03  0.31748908034E+03  0.00000000000E+00 0.  1.
          1   -1    0    0  501    0 -0.00000000000E+00 -0.00000000000E+00 -0.13150322319E+04  0.13150322319E+04  0.00000000000E+00 0. -1.
          2    1    1    2  501    0  0.84689857604E+02  0.30979314812E+02  0.65533723566E+02  0.11147537330E+03  0.00000000000E+00 0.  1.
          1    1    1    2  502    0  0.30499470812E+02  0.41263097268E+02 -0.12538324429E+04  0.12548819290E+04  0.00000000000E+00 0. -1.
         22    1    1    2    0    0 -0.43839590949E+02 -0.99895242724E+02  0.11344584865E+03  0.15738783254E+03  0.00000000000E+00 0.  1.
         22    1    1    2    0    0 -0.71349737467E+02  0.27652830644E+02  0.77309719161E+02  0.10877617734E+03  0.00000000000E+00 0.  1.
</event>
<event>
 6    1  0.4069520E-005  0.1333563E+03  0.7818608E-02  0.1243917E+00
          2   -1    0    0  502    0  0.00000000000E+00  0.00000000000E+00  0.15584950444E+04  0.15584950444E+04  0.00000000000E+00 0. -1.
          1   -1    0    0  501    0 -0.00000000000E+00 -0.00000000000E+00 -0.21760496539E+02  0.21760496539E+02  0.00000000000E+00 0. -1.
          2    1    1    2  501    0 -0.85417086173E+02 -0.41443302003E+02  0.30615333795E+03  0.32053625728E+03  0.00000000000E+00 0. -1.
          1    1    1    2  502    0  0.10811207956E+03 -0.27219222544E+01  0.85624302673E+03  0.86304562535E+03  0.00000000000E+00 0. -1.
         22    1    1    2    0    0  0.15755055763E+02 -0.32758804199E+02  0.54761559606E+02  0.65728148043E+02  0.00000000000E+00 0.  1.
         22    1    1    2    0    0 -0.38450049150E+02  0.76924028456E+02  0.31957662359E+03  0.33094551028E+03  0.00000000000E+00 0.  1.
</event>
<event>
 6    1  0.4069520E-005  0.1842139E+03  0.7818608E-02  0.1209394E+00
          2   -1    0    0  502    0  0.00000000000E+00  0.00000000000E+00  0.21874662569E+03  0.21874662569E+03  0.00000000000E+00 0. -1.
          1   -1    0    0  501    0 -0.00000000000E+00 -0.00000000000E+00 -0.26103541897E+04  0.26103541897E+04  0.00000000000E+00 0. -1.
          2    1    1    2  501    0 -0.15368083889E+03  0.67007930884E+02 -0.12975672101E+03  0.21200157945E+03  0.00000000000E+00 0. -1.
          1    1    1    2  502    0  0.13972259222E+03  0.16980916559E+01 -0.24087141948E+04  0.24127638423E+04  0.00000000000E+00 0. -1.
         22    1    1    2    0    0 -0.80501104554E+01 -0.66340702680E+02  0.16351005616E+03  0.17663926963E+03  0.00000000000E+00 0. -1.
         22    1    1    2    0    0  0.22008357123E+02 -0.23653198601E+01 -0.16646704360E+02  0.27696124049E+02  0.00000000000E+00 0. -1.
</event>
<event>
 6    1  0.4069520E-005  0.8715240E+02  0.7818608E-02  0.1382198E+00
          2   -1    0    0  502    0  0.00000000000E+00  0.00000000000E+00  0.30780195797E+03  0.30780195797E+03  0.00000000000E+00 0.  1.
          1   -1    0    0  501    0 -0.00000000000E+00 -0.00000000000E+00 -0.93314506243E+02  0.93314506243E+02  0.00000000000E+00 0. -1.
          2    1    1    2  501    0  0.16379306961E+02  0.63994235468E+02  0.14043381836E+03  0.15519407595E+03  0.00000000000E+00 0.  1.
          1    1    1    2  502    0  0.17752368366E+02 -0.65959335593E+02 -0.37472328319E+02  0.77909921859E+02  0.00000000000E+00 0. -1.
         22    1    1    2    0    0 -0.21863334889E+02  0.23942367164E+02  0.13177718370E+03  0.13570728979E+03  0.00000000000E+00 0. -1.
         22    1    1    2    0    0 -0.12268340439E+02 -0.21977267039E+02 -0.20251222011E+02  0.32305176622E+02  0.00000000000E+00 0.  1.
</event>
<event>
 6    1  0.4069520E-005  0.1128218E+03  0.7818608E-02  0.1361191E+00
          2   -1    0    0  502    0  0.00000000000E+00  0.00000000000E+00  0.36058442618E+02  0.36058442618E+02  0.00000000000E+00 0.  1.
          1   -1    0    0  501    0 -0.00000000000E+00 -0.00000000000E+00 -0.26570685752E+04  0.26570685752E+04  0.00000000000E+00 0.  1.
          2    1    1    2  501    0  0.31021983253E+02  0.68213804289E+02 -0.15731237019E+04  0.15749075110E+04  0.00000000000E+00 0.  1.
          1    1    1    2  502    0 -0.14515071210E+02 -0.34630731172E+02 -0.95751626735E+03  0.95825225128E+03  0.00000000000E+00 0.  1.
         22    1    1    2    0    0  0.17432014953E+00 -0.16412680967E+02  0.31632901990E+02  0.35637718394E+02  0.00000000000E+00 0.  1.
         22    1    1    2    0    0 -0.16681232192E+02 -0.17170392151E+02 -0.12200306526E+03  0.12432953714E+03  0.00000000000E+00 0.  1.
</event>
<event>
 6    1  0.4069520E-005  0.5970311E+02  0.7818608E-02  0.1435284E+00
          2   -1    0    0  502    0  0.00000000000E+00  0.00000000000E+00  0.49658248648E+02  0.49658248648E+02  0.00000000000E+00 0. -1.
          1   -1    0    0  501    0 -0.00000000000E+00 -0.00000000000E+00 -0.10889084959E+04  0.10889084959E+04  0.00000000000E+00 0. -1.
          2    1    1    2  501    0 -0.23925380611E+02 -0.18337878976E+02 -0.16263172745E+02  0.34251896743E+02  0.00000000000E+00 0. -1.
          1    1    1    2  502    0  0.43506751849E+02  0.12938775953E+02 -0.96575099489E+03  0.96681706311E+03  0.00000000000E+00 0. -1.
         22    1    1    2    0    0 -0.43391433660E+02 -0.19053900700E+02  0.21231276006E+02  0.51929131783E+02  0.00000000000E+00 0. -1.
         22    1    1    2    0    0  0.23810062422E+02  0.24453003723E+02 -0.78467355623E+02  0.85568652917E+02  0.00000000000E+00 0. -1.
</event>
<event>
 6    1  0.4069520E-005  0.1072320E+03  0.7818608E-02  0.1376794E+00
          2   -1    0    0  502    0  0.00000000000E+00  0.00000000000E+00  0.48408889663E+02  0.48408889663E+02  0.00000000000E+00 0. -1.
          1   -1    0    0  501    0 -0.00000000000E+00 -0.00000000000E+00 -0.26156201708E+04  0.26156201708E+04  0.00000000000E+00 0.  1.
          2    1    1    2  501    0 -0.79548191311E+02 -0.18307123818E+02 -0.39325201992E+03  0.40163443166E+03  0.00000000000E+00 0. -1.
          1    1    1    2  502    0  0.95704740979E+02  0.28076716274E+02 -0.21289158571E+04  0.21312509064E+04  0.00000000000E+00 0.  1.
         22    1    1    2    0    0 -0.30650092915E+02 -0.12555040802E+02 -0.83566012704E+02  0.89890687640E+02  0.00000000000E+00 0.  1.
         22    1    1    2    0    0  0.14493543247E+02  0.27854483463E+01  0.38522608500E+02  0.41253034845E+02  0.00000000000E+00 0. -1.
</event>
<event>
 6    1  0.4069520E-005  0.5310264E+02  0.7818608E-02  0.1440354E+00
          2   -1    0    0  502    0  0.00000000000E+00  0.00000000000E+00  0.10376474241E+03  0.10376474241E+03  0.00000000000E+00 0.  1.
          1   -1    0    0  501    0 -0.00000000000E+00 -0.00000000000E+00 -0.18344583966E+03  0.18344583966E+03  0.00000000000E+00 0.  1.
          2    1    1    2  501    0 -0.54780981704E+01  0.31859404746E+02 -0.69349456453E+02  0.76513909458E+02  0.00000000000E+00 0.  1.
          1    1    1    2  502    0 -0.34707721908E+02 -0.49122571178E+02 -0.39436545091E+02  0.71922833982E+02  0.00000000000E+00 0.  1.
         22    1    1    2    0    0 -0.97932818037E+01 -0.11599739563E+02 -0.43471939015E+02  0.46046409287E+02  0.00000000000E+00 0.  1.
         22    1    1    2    0    0  0.49979101883E+02  0.28862905996E+02  0.72576843314E+02  0.92727429345E+02  0.00000000000E+00 0.  1.
</event>
<event>
 6    1  0.4069520E-005  0.4048780E+03  0.7818608E-02  0.1126917E+00
          2   -1    0    0  502    0  0.00000000000E+00  0.00000000000E+00  0.17090226369E+04  0.17090226369E+04  0.00000000000E+00 0.  1.
          1   -1    0    0  501    0 -0.00000000000E+00 -0.00000000000E+00 -0.15215749613E+03  0.15215749613E+03  0.00000000000E+00 0.  1.
          2    1    1    2  501    0 -0.18729431046E+02 -0.18992185923E+03  0.84853428462E+03  0.86973072636E+03  0.00000000000E+00 0.  1.
          1    1    1    2  502    0  0.86967660793E+02 -0.12499482632E+02 -0.10795090936E+03  0.13918696031E+03  0.00000000000E+00 0.  1.
         22    1    1    2    0    0 -0.26412354259E+02  0.20037052212E+03  0.64421499391E+03  0.67517324959E+03  0.00000000000E+00 0.  1.
         22    1    1    2    0    0 -0.41825875488E+02  0.20508197464E+01  0.17206677164E+03  0.17708919681E+03  0.00000000000E+00 0.  1.
</event>
<event>
 6    1  0.4069520E-005  0.2641722E+03  0.7818608E-02  0.1160279E+00
          2   -1    0    0  502    0  0.00000000000E+00  0.00000000000E+00  0.61981115285E+03  0.61981115285E+03  0.00000000000E+00 0. -1.
          1   -1    0    0  501    0 -0.00000000000E+00 -0.00000000000E+00 -0.32466995201E+03  0.32466995201E+03  0.00000000000E+00 0. -1.
          2    1    1    2  501    0 -0.15951556066E+03 -0.73788007046E+02 -0.26827631890E+03  0.32072116762E+03  0.00000000000E+00 0. -1.
          1    1    1    2  502    0  0.61312212296E+02  0.85779746716E+02  0.17580534079E+03  0.20499968335E+03  0.00000000000E+00 0. -1.
         22    1    1    2    0    0  0.61411099498E+02 -0.28632263562E+02  0.36741468591E+03  0.37361033321E+03  0.00000000000E+00 0. -1.
         22    1    1    2    0    0  0.36792248869E+02  0.16640523891E+02  0.20197493053E+02  0.45149920685E+02  0.00000000000E+00 0. -1.
</event>
<event>
 6    1  0.4069520E-005  0.3652172E+02  0.7818608E-02  0.1542472E+00
          2   -1    0    0  502    0  0.00000000000E+00  0.00000000000E+00  0.48376618905E+02  0.48376618905E+02  0.00000000000E+00 0.  1.
          1   -1    0    0  501    0 -0.00000000000E+00 -0.00000000000E+00 -0.39684393076E+03  0.39684393076E+03  0.00000000000E+00 0.  1.
          2    1    1    2  501    0  0.39588211386E+01 -0.30978403908E+02 -0.12238061275E+03  0.12630260548E+03  0.00000000000E+00 0.  1.
          1    1    1    2  502    0  0.12134514549E+01  0.28851467430E+02 -0.18476974968E+03  0.18701267346E+03  0.00000000000E+00 0.  1.
         22    1    1    2    0    0  0.13644504876E+02 -0.24572674543E+02 -0.77927491663E+02  0.82841310977E+02  0.00000000000E+00 0.  1.
         22    1    1    2    0    0 -0.18816777470E+02  0.26699611020E+02  0.36610542241E+02  0.49063959748E+02  0.00000000000E+00 0.  1.
</event>
<event>
 6    1  0.4069520E-005  0.3834874E+03  0.7818608E-02  0.1145473E+00
          2   -1    0    0  502    0  0.00000000000E+00  0.00000000000E+00  0.37081467984E+03  0.37081467984E+03  0.00000000000E+00 0.  1.
          1   -1    0    0  501    0 -0.00000000000E+00 -0.00000000000E+00 -0.26170944064E+03  0.26170944064E+03  0.00000000000E+00 0. -1.
          2    1    1    2  501    0 -0.13694468134E+03 -0.49089193683E+02 -0.29691275936E+02  0.14847614809E+03  0.00000000000E+00 0.  1.
          1    1    1    2  502    0 -0.21663069148E+02  0.25596476961E+02 -0.13691185708E+03  0.14095859252E+03  0.00000000000E+00 0. -1.
         22    1    1    2    0    0  0.17266406425E+03 -0.45868971965E+01  0.23004299038E+03  0.28766942161E+03  0.00000000000E+00 0.  1.
         22    1    1    2    0    0 -0.14056313757E+02  0.28079613919E+02  0.45665381839E+02  0.55419958253E+02  0.00000000000E+00 0. -1.
</event>
<event>
 6    1  0.4069520E-005  0.1092020E+03  0.7818608E-02  0.1288880E+00
          2   -1    0    0  502    0  0.00000000000E+00  0.00000000000E+00  0.86092152087E+02  0.86092152087E+02  0.00000000000E+00 0. -1.
          1   -1    0    0  501    0 -0.00000000000E+00 -0.00000000000E+00 -0.98346577055E+03  0.98346577055E+03  0.00000000000E+00 0. -1.
          2    1    1    2  501    0 -0.57684769438E+02  0.13163035323E+02 -0.35713738719E+02  0.69110558219E+02  0.00000000000E+00 0. -1.
          1    1    1    2  502    0  0.10448666788E+03  0.10930724886E+02 -0.85909349395E+03  0.86549325581E+03  0.00000000000E+00 0. -1.
         22    1    1    2    0    0 -0.34701740854E+02  0.40069690073E+02 -0.33496694434E+02  0.62704221699E+02  0.00000000000E+00 0. -1.
         22    1    1    2    0    0 -0.12100157586E+02 -0.64163450282E+02  0.30930308638E+02  0.72249886907E+02  0.00000000000E+00 0.  1.
</event>
<event>
 6    1  0.4069520E-005  0.9485997E+02  0.7818608E-02  0.1342493E+00
          2   -1    0    0  502    0  0.00000000000E+00  0.00000000000E+00  0.11763534246E+03  0.11763534246E+03  0.00000000000E+00 0. -1.
          1   -1    0    0  501    0 -0.00000000000E+00 -0.00000000000E+00 -0.10229487433E+03  0.10229487433E+03  0.00000000000E+00 0. -1.
          2    1    1    2  501    0 -0.87057833797E+01 -0.48734096423E+02 -0.97591117532E+01  0.50458330141E+02  0.00000000000E+00 0. -1.
          1    1    1    2  502    0  0.82285011625E+01  0.23007218336E+02 -0.21898691753E+02  0.32811477069E+02  0.00000000000E+00 0. -1.
         22    1    1    2    0    0  0.37112688447E+02 -0.64868328908E+01  0.72431993296E+02  0.81644499494E+02  0.00000000000E+00 0.  1.
         22    1    1    2    0    0 -0.36635406230E+02  0.32213710978E+02 -0.25433721665E+02  0.55015910084E+02  0.00000000000E+00 0. -1.
</event>
<event>
 6    1  0.4069520E-005  0.5851695E+02  0.7818608E-02  0.1420403E+00
          2   -1    0    0  502    0  0.00000000000E+00  0.00000000000E+00  0.17173550477E+03  0.17173550477E+03  0.00000000000E+00 0. -1.
          1   -1    0    0  501    0 -0.00000000000E+00 -0.00000000000E+00 -0.10151791701E+04  0.10151791701E+04  0.00000000000E+00 0. -1.
          2    1    1    2  501    0  0.52586581257E+02 -0.26438502349E+02 -0.67262053495E+02  0.89378558811E+02  0.00000000000E+00 0. -1.
          1    1    1    2  502    0 -0.26308009622E+02 -0.73338045394E+01 -0.90811996397E+03  0.90853055260E+03  0.00000000000E+00 0. -1.
         22    1    1    2    0    0 -0.39239232839E+02  0.21759464155E+02  0.15419271586E+03  0.16058824770E+03  0.00000000000E+00 0. -1.
         22    1    1    2    0    0  0.12960661204E+02  0.12012842734E+02 -0.22254363738E+02  0.28417315756E+02  0.00000000000E+00 0.  1.
</event>
<event>
 6    1  0.4069520E-005  0.7766307E+02  0.7818608E-02  0.1338671E+00
          2   -1    0    0  502    0  0.00000000000E+00  0.00000000000E+00  0.25507874370E+02  0.25507874370E+02  0.00000000000E+00 0. -1.
          1   -1    0    0  501    0 -0.00000000000E+00 -0.00000000000E+00 -0.13333110920E+04  0.13333110920E+04  0.00000000000E+00 0.  1.
          2    1    1    2  501    0 -0.16373051917E+01  0.23027991520E+02 -0.35799925868E+02  0.42598167259E+02  0.00000000000E+00 0. -1.
          1    1    1    2  502    0  0.28099399816E+02  0.21184661401E+02 -0.10907635402E+04  0.10913310528E+04  0.00000000000E+00 0.  1.
         22    1    1    2    0    0  0.27032393518E+02  0.30334328322E+02 -0.67091127776E+02  0.78435586314E+02  0.00000000000E+00 0. -1.
         22    1    1    2    0    0 -0.53494488142E+02 -0.74546981243E+02 -0.11414862382E+03  0.14645416005E+03  0.00000000000E+00 0. -1.
</event>
<event>
 6    1  0.4069520E-005  0.8411497E+02  0.7818608E-02  0.1319744E+00
          2   -1    0    0  502    0  0.00000000000E+00  0.00000000000E+00  0.22305771042E+03  0.22305771042E+03  0.00000000000E+00 0. -1.
          1   -1    0    0  501    0 -0.00000000000E+00 -0.00000000000E+00 -0.29866379146E+03  0.29866379146E+03  0.00000000000E+00 0. -1.
          2    1    1    2  501    0 -0.78065137192E+01 -0.25996913122E+02  0.12553685425E+02  0.29906122552E+02  0.00000000000E+00 0. -1.
          1    1    1    2  502    0 -0.71269319006E+02  0.26889315067E+02 -0.25498269485E+03  0.26611750368E+03  0.00000000000E+00 0. -1.
         22    1    1    2    0    0  0.11002088651E+03  0.20142084727E+02  0.14215020692E+03  0.18087835794E+03  0.00000000000E+00 0.  1.
         22    1    1    2    0    0 -0.30945053783E+02 -0.21034486672E+02  0.24672721460E+02  0.44819517706E+02  0.00000000000E+00 0. -1.
</event>
<event>
 6    1  0.4069520E-005  0.9531312E+02  0.7818608E-02  0.1310460E+00
          2   -1    0    0  502    0  0.00000000000E+00  0.00000000000E+00  0.19968720819E+03  0.19968720819E+03  0.00000000000E+00 0. -1.
          1   -1    0    0  501    0 -0.00000000000E+00 -0.00000000000E+00 -0.85345118563E+02  0.85345118563E+02  0.00000000000E+00 0.  1.
          2    1    1    2  501    0 -0.20051601826E+02 -0.11269999931E+02 -0.56918559335E+01  0.23695502911E+02  0.00000000000E+00 0. -1.
          1    1    1    2  502    0 -0.22694326604E+02  0.36024679844E+02 -0.36770405683E+02  0.56257201779E+02  0.00000000000E+00 0.  1.
         22    1    1    2    0    0  0.40492267094E+02  0.46048706538E+02  0.71197537971E+02  0.93963804102E+02  0.00000000000E+00 0.  1.
         22    1    1    2    0    0  0.22536613364E+01 -0.70803386451E+02  0.85606813271E+02  0.11111581796E+03  0.00000000000E+00 0. -1.
</event>
<event>
 6    1  0.4069520E-005  0.1184711E+03  0.7818608E-02  0.1247118E+00
          2   -1    0    0  502    0  0.00000000000E+00  0.00000000000E+00  0.50239142915E+03  0.50239142915E+03  0.00000000000E+00 0. -1.
          1   -1    0    0  501    0 -0.00000000000E+00 -0.00000000000E+00 -0.60563691509E+02  0.60563691509E+02  0.00000000000E+00 0. -1.
          2    1    1    2  501    0  0.65697663613E+02  0.66238683283E+02  0.24441681512E+03  0.26161675344E+03  0.00000000000E+00 0. -1.
          1    1    1    2  502    0 -0.32484200722E+01  0.45668996772E+02  0.49406409344E+02  0.67358761742E+02  0.00000000000E+00 0. -1.
         22    1    1    2    0    0 -0.64874302436E+02 -0.13002183091E+03  0.84923128146E+02  0.16830415718E+03  0.00000000000E+00 0. -1.
         22    1    1    2    0    0  0.24250588959E+01  0.18114150852E+02  0.63081385027E+02  0.65675448294E+02  0.00000000000E+00 0. -1.
</event>
<event>
 6    1  0.4069520E-005  0.8573727E+02  0.7818608E-02  0.1339959E+00
          2   -1    0    0  502    0  0.00000000000E+00  0.00000000000E+00  0.51813857897E+03  0.51813857897E+03  0.00000000000E+00 0. -1.
          1   -1    0    0  501    0 -0.00000000000E+00 -0.00000000000E+00 -0.51752101857E+02  0.51752101857E+02  0.00000000000E+00 0. -1.
          2    1    1    2  501    0  0.19091928092E+02  0.13465751451E+02  0.14555839842E+02  0.27526362889E+02  0.00000000000E+00 0. -1.
          1    1    1    2  502    0 -0.70223094472E+02 -0.10055824998E+03  0.11520277935E+03  0.16827039254E+03  0.00000000000E+00 0. -1.
         22    1    1    2    0    0  0.22327973543E+02  0.41754834507E+02  0.17504590716E+02  0.50481831419E+02  0.00000000000E+00 0. -1.
         22    1    1    2    0    0  0.28803192836E+02  0.45337664023E+02  0.31912326720E+03  0.32361209398E+03  0.00000000000E+00 0. -1.
</event>
<event>
 6    1  0.4069520E-005  0.1597087E+03  0.7818608E-02  0.1224356E+00
          2   -1    0    0  502    0  0.00000000000E+00  0.00000000000E+00  0.33038098321E+03  0.33038098321E+03  0.00000000000E+00 0. -1.
          1   -1    0    0  501    0 -0.00000000000E+00 -0.00000000000E+00 -0.25365269034E+03  0.25365269034E+03  0.00000000000E+00 0. -1.
          2    1    1    2  501    0 -0.13557442921E+03  0.63957697715E+02 -0.15893457052E+03  0.21847473689E+03  0.00000000000E+00 0. -1.
          1    1    1    2  502    0  0.11176538361E+03  0.18000760715E+02  0.15556268655E+03  0.19239354928E+03  0.00000000000E+00 0. -1.
         22    1    1    2    0    0  0.22130601785E+02 -0.71428912523E+02  0.11472051196E+03  0.13694031161E+03  0.00000000000E+00 0.  1.
         22    1    1    2    0    0  0.16784438143E+01 -0.10529545907E+02 -0.34620335115E+02  0.36225075764E+02  0.00000000000E+00 0.  1.
</event>
<event>
 6    1  0.4069520E-005  0.1692783E+03  0.7818608E-02  0.1244760E+00
          2   -1    0    0  502    0  0.00000000000E+00  0.00000000000E+00  0.51723157777E+02  0.51723157777E+02  0.00000000000E+00 0.  1.
          1   -1    0    0  501    0 -0.00000000000E+00 -0.00000000000E+00 -0.84221078828E+03  0.84221078828E+03  0.00000000000E+00 0.  1.
          2    1    1    2  501    0  0.80964598967E+02 -0.13672455452E+02 -0.66213887650E+02  0.10548213707E+03  0.00000000000E+00 0.  1.
          1    1    1    2  502    0 -0.26102950170E+02 -0.37474671837E+02 -0.59021603674E+03  0.59198030800E+03  0.00000000000E+00 0.  1.
         22    1    1    2    0    0 -0.82298541408E+02  0.95117639382E+00 -0.55402723740E+02  0.99213993227E+02  0.00000000000E+00 0.  1.
         22    1    1    2    0    0  0.27436892610E+02  0.50195950896E+02 -0.78654982375E+02  0.97257507755E+02  0.00000000000E+00 0.  1.
</event>
<event>
 6    1  0.4069520E-005  0.2232768E+03  0.7818608E-02  0.1131908E+00
          2   -1    0    0  502    0  0.00000000000E+00  0.00000000000E+00  0.80202557711E+02  0.80202557711E+02  0.00000000000E+00 0.  1.
          1   -1    0    0  501    0 -0.00000000000E+00 -0.00000000000E+00 -0.12270211943E+04  0.12270211943E+04  0.00000000000E+00 0. -1.
          2    1    1    2  501    0 -0.11746128277E+03 -0.10714425299E+03 -0.51395852580E+03  0.53798736988E+03  0.00000000000E+00 0.  1.
          1    1    1    2  502    0 -0.73290504961E+02 -0.15433450725E+02 -0.44039189039E+03  0.44671546497E+03  0.00000000000E+00 0. -1.
         22    1    1    2    0    0  0.20076250185E+03  0.13379707224E+03 -0.16868743186E+03  0.29438527197E+03  0.00000000000E+00 0.  1.
         22    1    1    2    0    0 -0.10010714118E+02 -0.11219368524E+02 -0.23780788564E+02  0.28135645220E+02  0.00000000000E+00 0. -1.
</event>
<event>
 6    1  0.4069520E-005  0.7884499E+02  0.7818608E-02  0.1387607E+00
          2   -1    0    0  502    0  0.00000000000E+00  0.00000000000E+00  0.45343187623E+02  0.45343187623E+02  0.00000000000E+00 0. -1.
          1   -1    0    0  501    0 -0.00000000000E+00 -0.00000000000E+00 -0.51857839448E+03  0.51857839448E+03  0.00000000000E+00 0.  1.
          2    1    1    2  501    0 -0.43794260688E+02  0.43990322775E+02 -0.26122670939E+03  0.26850042731E+03  0.00000000000E+00 0. -1.
          1    1    1    2  502    0  0.29034898262E+02  0.38593050287E+01 -0.13585001782E+03  0.13897174855E+03  0.00000000000E+00 0.  1.
         22    1    1    2    0    0  0.23021546097E+02 -0.20505756827E+02  0.32087343446E+02  0.44498036554E+02  0.00000000000E+00 0. -1.
         22    1    1    2    0    0 -0.82621836714E+01 -0.27343870977E+02 -0.10824582309E+03  0.11195136969E+03  0.00000000000E+00 0. -1.
</event>
<event>
 6    1  0.4069520E-005  0.4986746E+03  0.7818608E-02  0.1120065E+00
          2   -1    0    0  502    0  0.00000000000E+00  0.00000000000E+00  0.10179760859E+04  0.10179760859E+04  0.00000000000E+00 0.  1.
          1   -1    0    0  501    0 -0.00000000000E+00 -0.00000000000E+00 -0.24034390365E+03  0.24034390365E+03  0.00000000000E+00 0.  1.
          2    1    1    2  501    0 -0.19406776727E+03 -0.13817257472E+03  0.32548556168E+03  0.40335444656E+03  0.00000000000E+00 0.  1.
          1    1    1    2  502    0  0.25528126105E+02 -0.34223114038E+02 -0.17015859426E+03  0.17543333195E+03  0.00000000000E+00 0.  1.
         22    1    1    2    0    0 -0.21104647797E+02  0.16146884641E+02  0.47920156951E+02  0.54794794319E+02  0.00000000000E+00 0. -1.
         22    1    1    2    0    0  0.18964428897E+03  0.15624880411E+03  0.57438505790E+03  0.62473741673E+03  0.00000000000E+00 0.  1.
</event>
<event>
 6    1  0.4069520E-005  0.2358904E+03  0.7818608E-02  0.1174738E+00
          2   -1    0    0  502    0  0.00000000000E+00  0.00000000000E+00  0.60374763321E+03  0.60374763321E+03  0.00000000000E+00 0. -1.
          1   -1    0    0  501    0 -0.00000000000E+00 -0.00000000000E+00 -0.24562986924E+03  0.24562986924E+03  0.00000000000E+00 0. -1.
          2    1    1    2  501    0  0.17826191808E+03 -0.10538522933E+03  0.29424643598E+03  0.35981151050E+03  0.00000000000E+00 0. -1.
          1    1    1    2  502    0 -0.16322676664E+03  0.15287033230E+03 -0.12611961871E+03  0.25674593292E+03  0.00000000000E+00 0. -1.
         22    1    1    2    0    0 -0.62409609037E+02 -0.27669846377E+02  0.15851174003E+03  0.17258780787E+03  0.00000000000E+00 0.  1.
         22    1    1    2    0    0  0.47374457604E+02 -0.19815256591E+02  0.31479206677E+02  0.60232251162E+02  0.00000000000E+00 0.  1.
</event>
<event>
 6    1  0.4069520E-005  0.2922500E+03  0.7818608E-02  0.1107963E+00
          2   -1    0    0  502    0  0.00000000000E+00  0.00000000000E+00  0.21295114582E+03  0.21295114582E+03  0.00000000000E+00 0. -1.
          1   -1    0    0  501    0 -0.00000000000E+00 -0.00000000000E+00 -0.20428136013E+04  0.20428136013E+04  0.00000000000E+00 0. -1.
          2    1    1    2  501    0  0.51170918268E+02  0.16062986845E+03  0.65661149082E+02  0.18091933013E+03  0.00000000000E+00 0. -1.
          1    1    1    2  502    0  0.80863535811E+02 -0.28384197727E+03 -0.18206980221E+04  0.18444637343E+04  0.00000000000E+00 0. -1.
         22    1    1    2    0    0 -0.15413492909E+03  0.91549917208E+02 -0.60916734565E+02  0.18934046651E+03  0.00000000000E+00 0. -1.
         22    1    1    2    0    0  0.22100475013E+02  0.31662191608E+02 -0.13908847863E+02  0.41041216138E+02  0.00000000000E+00 0. -1.
</event>
<event>
 6    1  0.4069520E-005  0.1315734E+03  0.7818608E-02  0.1273658E+00
          2   -1    0    0  502    0  0.00000000000E+00  0.00000000000E+00  0.50510058206E+02  0.50510058206E+02  0.00000000000E+00 0. -1.
          1   -1    0    0  501    0 -0.00000000000E+00 -0.00000000000E+00 -0.58901253672E+03  0.58901253672E+03  0.00000000000E+00 0.  1.
          2    1    1    2  501    0  0.10226919408E+02 -0.23036736500E+02 -0.10357291082E+03  0.10659563296E+03  0.00000000000E+00 0. -1.
          1    1    1    2  502    0 -0.48758734452E+02  0.12275810223E+02 -0.38983301060E+03  0.39306219082E+03  0.00000000000E+00 0.  1.
         22    1    1    2    0    0  0.69798123105E+02  0.45069364229E+01 -0.70340366773E+02  0.99196056689E+02  0.00000000000E+00 0. -1.
         22    1    1    2    0    0 -0.31266308060E+02  0.62539898545E+01  0.25243809678E+02  0.40668714460E+02  0.00000000000E+00 0. -1.
</event>
<event>
 6    1  0.4069520E-005  0.2342000E+03  0.7818608E-02  0.1193651E+00
          2   -1    0    0  502    0  0.00000000000E+00  0.00000000000E+00  0.47323553943E+02  0.47323553943E+02  0.00000000000E+00 0. -1.
          1   -1    0    0  501    0 -0.00000000000E+00 -0.00000000000E+00 -0.13432366749E+04  0.13432366749E+04  0.00000000000E+00 0. -1.
          2    1    1    2  501    0  0.50744649934E+02  0.39583031678E+01 -0.46662742127E+03  0.46939518313E+03  0.00000000000E+00 0. -1.
          1    1    1    2  502    0 -0.75520711544E+01 -0.23975487543E+02 -0.77320171395E+03  0.77361020433E+03  0.00000000000E+00 0. -1.
         22    1    1    2    0    0  0.20899463196E+02 -0.39832941681E+02 -0.30780205129E+01  0.45087969738E+02  0.00000000000E+00 0.  1.
         22    1    1    2    0    0 -0.64092041975E+02  0.59850126057E+02 -0.53005965188E+02  0.10246687162E+03  0.00000000000E+00 0. -1.
</event>
<event>
 6    1  0.4069520E-005  0.1904157E+03  0.7818608E-02  0.1266291E+00
          2   -1    0    0  502    0  0.00000000000E+00  0.00000000000E+00  0.12072424031E+03  0.12072424031E+03  0.00000000000E+00 0. -1.
          1   -1    0    0  501    0 -0.00000000000E+00 -0.00000000000E+00 -0.23746496771E+03  0.23746496771E+03  0.00000000000E+00 0.  1.
          2    1    1    2  501    0  0.52760495385E+02  0.82051523166E+02 -0.40745009809E+02  0.10571791784E+03  0.00000000000E+00 0. -1.
          1    1    1    2  502    0 -0.29374479316E+02  0.23906172676E+02 -0.78692087423E+02  0.87331607967E+02  0.00000000000E+00 0.  1.
         22    1    1    2    0    0 -0.14441281770E+02 -0.12289458183E+02  0.54516030542E+02  0.57719831840E+02  0.00000000000E+00 0. -1.
         22    1    1    2    0    0 -0.89447342995E+01 -0.93668237660E+02 -0.51819660719E+02  0.10741985038E+03  0.00000000000E+00 0. -1.
</event>
<event>
 6    1  0.4069520E-005  0.2075988E+03  0.7818608E-02  0.1170690E+00
          2   -1    0    0  502    0  0.00000000000E+00  0.00000000000E+00  0.51240418977E+03  0.51240418977E+03  0.00000000000E+00 0. -1.
          1   -1    0    0  501    0 -0.00000000000E+00 -0.00000000000E+00 -0.21187006796E+03  0.21187006796E+03  0.00000000000E+00 0. -1.
          2    1    1    2  501    0 -0.12845916922E+03  0.11854754674E+03 -0.77728779036E+02  0.19130353390E+03  0.00000000000E+00 0. -1.
          1    1    1    2  502    0  0.13221533566E+03  0.19249138568E+02  0.29955599448E+03  0.32800185693E+03  0.00000000000E+00 0. -1.
         22    1    1    2    0    0  0.25175874417E+02 -0.10689876967E+03  0.10757575233E+03  0.15373260584E+03  0.00000000000E+00 0. -1.
         22    1    1    2    0    0 -0.28932040858E+02 -0.30897915639E+02 -0.28868845965E+02  0.51236261050E+02  0.00000000000E+00 0.  1.
</event>
<event>
 6    1  0.4069520E-005  0.1942129E+03  0.7818608E-02  0.1278445E+00
          2   -1    0    0  502    0  0.00000000000E+00  0.00000000000E+00  0.12554487934E+03  0.12554487934E+03  0.00000000000E+00 0.  1.
          1   -1    0    0  501    0 -0.00000000000E+00 -0.00000000000E+00 -0.62334123858E+03  0.62334123858E+03  0.00000000000E+00 0. -1.
          2    1    1    2  501    0 -0.81234398506E+02  0.57400424497E+02 -0.83668853063E+02  0.12997812587E+03  0.00000000000E+00 0.  1.
          1    1    1    2  502    0  0.15200897998E+03 -0.10834938260E+03 -0.42549501527E+03  0.46464214910E+03  0.00000000000E+00 0. -1.
         22    1    1    2    0    0  0.14139103849E+02 -0.22510549865E+00  0.46871697319E+02  0.48958359242E+02  0.00000000000E+00 0. -1.
         22    1    1    2    0    0 -0.84913685323E+02  0.51174063599E+02 -0.35504188227E+02  0.10530748369E+03  0.00000000000E+00 0.  1.
</event>
<event>
 6    1  0.4069520E-005  0.1935888E+03  0.7818608E-02  0.1180456E+00
          2   -1    0    0  502    0  0.00000000000E+00  0.00000000000E+00  0.10047427777E+04  0.10047427777E+04  0.00000000000E+00 0. -1.
          1   -1    0    0  501    0 -0.00000000000E+00 -0.00000000000E+00 -0.13623953972E+03  0.13623953972E+03  0.00000000000E+00 0. -1.
          2    1    1    2  501    0 -0.55237583931E+02  0.10889147305E+03 -0.16721975602E+02  0.12324028582E+03  0.00000000000E+00 0. -1.
          1    1    1    2  502    0  0.14566442059E+03 -0.19791239627E+03  0.22036954269E+03  0.33007601453E+03  0.00000000000E+00 0. -1.
         22    1    1    2    0    0 -0.33374334866E+02 -0.33331617604E+01  0.34819488789E+02  0.48346178697E+02  0.00000000000E+00 0.  1.
         22    1    1    2    0    0 -0.57052501794E+02  0.92354084975E+02  0.63003618212E+03  0.63931983839E+03  0.00000000000E+00 0.  1.
</event>
<event>
 6    1  0.4069520E-005  0.2087504E+03  0.7818608E-02  0.1231985E+00
          2   -1    0    0  502    0  0.00000000000E+00  0.00000000000E+00  0.30999814430E+03  0.30999814430E+03  0.00000000000E+00 0. -1.
          1   -1    0    0  501    0 -0.00000000000E+00 -0.00000000000E+00 -0.27099032391E+03  0.27099032391E+03  0.00000000000E+00 0. -1.
          2    1    1    2  501    0 -0.16440605629E+03  0.86498968872E+02  0.30239956771E+02  0.18821763452E+03  0.00000000000E+00 0. -1.
          1    1    1    2  502    0  0.17445192134E+03 -0.90674367979E+02 -0.10680596319E+03  0.22374724052E+03  0.00000000000E+00 0. -1.
         22    1    1    2    0    0 -0.36377226282E+02  0.15319535801E+02 -0.96030141992E+01  0.40622760256E+02  0.00000000000E+00 0. -1.
         22    1    1    2    0    0  0.26331361235E+02 -0.11144136694E+02  0.12517684100E+03  0.12840083291E+03  0.00000000000E+00 0. -1.
</event>
<event>
 6    1  0.4069520E-005  0.1580712E+03  0.7818608E-02  0.1245200E+00
          2   -1    0    0  502    0  0.00000000000E+00  0.00000000000E+00  0.57422337356E+03  0.57422337356E+03  0.00000000000E+00 0. -1.
          1   -1    0    0  501    0 -0.00000000000E+00 -0.00000000000E+00 -0.11524982359E+04  0.11524982359E+04  0.00000000000E+00 0. -1.
          2    1    1    2  501    0 -0.60029632027E+01 -0.90088277049E+02  0.16558504516E+03  0.18860100850E+03  0.00000000000E+00 0. -1.
          1    1    1    2  502    0 -0.26759593270E+01  0.13951511073E+03 -0.11248242135E+04  0.11334465749E+04  0.00000000000E+00 0. -1.
         22    1    1    2    0    0 -0.50048172237E+02  0.52280038480E+01  0.20815257966E+03  0.21414865862E+03  0.00000000000E+00 0.  1.
         22    1    1    2    0    0  0.58727094767E+02 -0.54654837527E+02  0.17281172627E+03  0.19052536750E+03  0.00000000000E+00 0. -1.
</event>
<event>
 6    1  0.4069520E-005  0.5393055E+02  0.7818608E-02  0.1428213E+00
          2   -1    0    0  502    0  0.00000000000E+00  0.00000000000E+00  0.13558263162E+03  0.13558263162E+03  0.00000000000E+00 0.  1.
          1   -1    0    0  501    0 -0.00000000000E+00 -0.00000000000E+00 -0.40214616522E+03  0.40214616522E+03  0.00000000000E+00 0. -1.
          2    1    1    2  501    0 -0.49143305505E+02 -0.23057975107E+02 -0.81552294076E+02  0.97966889106E+02  0.00000000000E+00 0.  1.
          1    1    1    2  502    0  0.38056079657E+02 -0.18407597565E+01 -0.27738074758E+03  0.27998523662E+03  0.00000000000E+00 0. -1.
         22    1    1    2    0    0  0.30825909934E+02  0.40101185414E+02  0.11530606972E+03  0.12591199907E+03  0.00000000000E+00 0.  1.
         22    1    1    2    0    0 -0.19738684086E+02 -0.15202450551E+02 -0.22936561658E+02  0.33864672047E+02  0.00000000000E+00 0.  1.
</event>
<event>
 6    1  0.4069520E-005  0.1260747E+03  0.7818608E-02  0.1288230E+00
          2   -1    0    0  502    0  0.00000000000E+00  0.00000000000E+00  0.13282872108E+03  0.13282872108E+03  0.00000000000E+00 0.  1.
          1   -1    0    0  501    0 -0.00000000000E+00 -0.00000000000E+00 -0.26203654239E+03  0.26203654239E+03  0.00000000000E+00 0.  1.
          2    1    1    2  501    0 -0.98824959213E+02 -0.22315979831E+02 -0.12441821334E+03  0.16045020202E+03  0.00000000000E+00 0.  1.
          1    1    1    2  502    0  0.10289699606E+03 -0.15225325232E+00  0.29788806657E+02  0.10712230384E+03  0.00000000000E+00 0.  1.
         22    1    1    2    0    0  0.27289884378E+01  0.42865837509E+02  0.34406946481E+02  0.55034219985E+02  0.00000000000E+00 0. -1.
         22    1    1    2    0    0 -0.68010252821E+01 -0.20397604426E+02 -0.68985361107E+02  0.72258537615E+02  0.00000000000E+00 0.  1.
</event>
<event>
 6    1  0.4069520E-005  0.2501789E+03  0.7818608E-02  0.1211935E+00
          2   -1    0    0  502    0  0.00000000000E+00  0.00000000000E+00  0.14755870979E+04  0.14755870979E+04  0.00000000000E+00 0.  1.
          1   -1    0    0  501    0 -0.00000000000E+00 -0.00000000000E+00 -0.35927068427E+03  0.35927068427E+03  0.00000000000E+00 0.  1.
          2    1    1    2  501    0  0.46869861602E+02 -0.71186186185E+02  0.32685848566E+03  0.33778799073E+03  0.00000000000E+00 0.  1.
          1    1    1    2  502    0 -0.17730101080E+03  0.25134429867E+00 -0.32251458328E+03  0.36803718295E+03  0.00000000000E+00 0.  1.
         22    1    1    2    0    0  0.14253372383E+03  0.93120102660E+02  0.96679290438E+03  0.98166987114E+03  0.00000000000E+00 0.  1.
         22    1    1    2    0    0 -0.12102574636E+02 -0.22185260774E+02  0.14517960691E+03  0.14736273739E+03  0.00000000000E+00 0. -1.
</event>
<event>
 6    1  0.4069520E-005  0.1036768E+03  0.7818608E-02  0.1365493E+00
          2   -1    0    0  502    0  0.00000000000E+00  0.00000000000E+00  0.63940804932E+02  0.63940804932E+02  0.00000000000E+00 0. -1.
          1   -1    0    0  501    0 -0.00000000000E+00 -0.00000000000E+00 -0.69641379902E+03  0.69641379902E+03  0.00000000000E+00 0. -1.
          2    1    1    2  501    0  0.61846622709E+02  0.23065894261E+01 -0.52826098629E+03  0.53187404029E+03  0.00000000000E+00 0. -1.
          1    1    1    2  502    0 -0.60171651463E+02  0.36144465398E+02 -0.26694210093E+02  0.75097475797E+02  0.00000000000E+00 0. -1.
         22    1    1    2    0    0 -0.17576361937E+02 -0.88604488879E+01  0.32695948792E+02  0.38163609903E+02  0.00000000000E+00 0. -1.
         22    1    1    2    0    0  0.15901390690E+02 -0.29590605936E+02 -0.11021374650E+03  0.11521947796E+03  0.00000000000E+00 0. -1.
</event>
<event>
 6    1  0.4069520E-005  0.4491414E+02  0.7818608E-02  0.1484961E+00
          2   -1    0    0  502    0  0.00000000000E+00  0.00000000000E+00  0.17345159720E+03  0.17345159720E+03  0.00000000000E+00 0. -1.
          1   -1    0    0  501    0 -0.00000000000E+00 -0.00000000000E+00 -0.11490392363E+04  0.11490392363E+04  0.00000000000E+00 0. -1.
          2    1    1    2  501    0 -0.15661749518E+01  0.34296821136E+02 -0.21728543376E+02  0.40630708107E+02  0.00000000000E+00 0. -1.
          1    1    1    2  502    0  0.23755862897E+02 -0.29352804266E+02 -0.10940810576E+04  0.10947325193E+04  0.00000000000E+00 0. -1.
         22    1    1    2    0    0 -0.53130078022E+01 -0.37418366056E+02  0.14534007987E+03  0.15017356953E+03  0.00000000000E+00 0. -1.
         22    1    1    2    0    0 -0.16876680143E+02  0.32474349185E+02 -0.51181179683E+01  0.36954036575E+02  0.00000000000E+00 0. -1.
</event>
<event>
 6    1  0.4069520E-005  0.7753150E+02  0.7818608E-02  0.1339218E+00
          2   -1    0    0  502    0  0.00000000000E+00  0.00000000000E+00  0.27697750829E+03  0.27697750829E+03  0.00000000000E+00 0.  1.
          1   -1    0    0  501    0 -0.00000000000E+00 -0.00000000000E+00 -0.18829281076E+03  0.18829281076E+03  0.00000000000E+00 0.  1.
          2    1    1    2  501    0  0.57494050168E+01  0.40772200503E+02  0.71891452614E+02  0.82848107708E+02  0.00000000000E+00 0.  1.
          1    1    1    2  502    0  0.36101405262E+02 -0.48546152061E+02 -0.15403972113E+03  0.16549403623E+03  0.00000000000E+00 0.  1.
         22    1    1    2    0    0 -0.53930391190E+02 -0.34078877479E+02  0.31900619740E+02  0.71326758821E+02  0.00000000000E+00 0.  1.
         22    1    1    2    0    0  0.12079580911E+02  0.41852829036E+02  0.13893234631E+03  0.14560141629E+03  0.00000000000E+00 0.  1.
</event>
<event>
 6    1  0.4069520E-005  0.1029175E+03  0.7818608E-02  0.1276298E+00
          2   -1    0    0  502    0  0.00000000000E+00  0.00000000000E+00  0.78090271502E+03  0.78090271502E+03  0.00000000000E+00 0.  1.
          1   -1    0    0  501    0 -0.00000000000E+00 -0.00000000000E+00 -0.42816978710E+02  0.42816978710E+02  0.00000000000E+00 0.  1.
          2    1    1    2  501    0 -0.83160990038E+02 -0.48064988195E+02  0.12021188209E+03  0.15387296692E+03  0.00000000000E+00 0.  1.
          1    1    1    2  502    0  0.44061940169E+02 -0.18993663814E+02  0.16577180883E+02  0.50764325688E+02  0.00000000000E+00 0.  1.
         22    1    1    2    0    0  0.68647738260E+02  0.66916718318E+02  0.56089173040E+03  0.56902538817E+03  0.00000000000E+00 0.  1.
         22    1    1    2    0    0 -0.29548688392E+02  0.14193369072E+00  0.40404942940E+02  0.50057012944E+02  0.00000000000E+00 0. -1.
</event>
<event>
 6    1  0.4069520E-005  0.4203025E+03  0.7818608E-02  0.1145942E+00
          2   -1    0    0  502    0  0.00000000000E+00  0.00000000000E+00  0.42381309624E+03  0.42381309624E+03  0.00000000000E+00 0. -1.
          1   -1    0    0  501    0 -0.00000000000E+00 -0.00000000000E+00 -0.33172294011E+04  0.33172294011E+04  0.00000000000E+00 0.  1.
          2    1    1    2  501    0 -0.21555849719E+03  0.12672493861E+03  0.11477626947E+03  0.27513318194E+03  0.00000000000E+00 0. -1.
          1    1    1    2  502    0  0.37867384258E+03 -0.16596131587E+03 -0.31714179953E+04  0.31982540765E+04  0.00000000000E+00 0.  1.
         22    1    1    2    0    0 -0.11474663901E+02  0.20606480237E+02  0.99261289283E+02  0.10202498953E+03  0.00000000000E+00 0.  1.
         22    1    1    2    0    0 -0.15164068149E+03  0.18629897020E+02  0.63964131667E+02  0.16563024931E+03  0.00000000000E+00 0. -1.
</event>
<event>
 6    1  0.4069520E-005  0.8085386E+02  0.7818608E-02  0.1362190E+00
          2   -1    0    0  502    0  0.00000000000E+00  0.00000000000E+00  0.18650459353E+03  0.18650459353E+03  0.00000000000E+00 0.  1.
          1   -1    0    0  501    0 -0.00000000000E+00 -0.00000000000E+00 -0.46892390510E+03  0.46892390510E+03  0.00000000000E+00 0. -1.
          2    1    1    2  501    0  0.12718310133E+02  0.19763053509E+02  0.28645020865E+02  0.37052272764E+02  0.00000000000E+00 0.  1.
          1    1    1    2  502    0 -0.51888402174E+02  0.11586572386E+02 -0.43265208777E+03  0.43590650831E+03  0.00000000000E+00 0. -1.
         22    1    1    2    0    0  0.83016052627E+02 -0.32195599989E+02  0.62067881054E+02  0.10853867288E+03  0.00000000000E+00 0.  1.
         22    1    1    2    0    0 -0.43845960586E+02  0.84597409362E+00  0.59519874285E+02  0.73931044675E+02  0.00000000000E+00 0. -1.
</event>
<event>
 6    1  0.4069520E-005  0.9060322E+02  0.7818608E-02  0.1302527E+00
          2   -1    0    0  502    0  0.00000000000E+00  0.00000000000E+00  0.18167996340E+03  0.18167996340E+03  0.00000000000E+00 0. -1.
          1   -1    0    0  501    0 -0.00000000000E+00 -0.00000000000E+00 -0.11262686348E+04  0.11262686348E+04  0.00000000000E+00 0.  1.
          2    1    1    2  501    0  0.50630145474E+02 -0.67262977755E-01  0.48153185865E+02  0.69872351213E+02  0.00000000000E+00 0. -1.
          1    1    1    2  502    0 -0.39975570449E+01  0.53540807360E+02 -0.10723514983E+04  0.10736947120E+04  0.00000000000E+00 0.  1.
         22    1    1    2    0    0  0.32894656631E+02  0.15039008102E+02  0.34984217795E+02  0.50320231461E+02  0.00000000000E+00 0. -1.
         22    1    1    2    0    0 -0.79527245060E+02 -0.68512552485E+02  0.44625423321E+02  0.11406130352E+03  0.00000000000E+00 0.  1.
</event>
<event>
 6    1  0.4069520E-005  0.3622896E+03  0.7818608E-02  0.1178291E+00
          2   -1    0    0  502    0  0.00000000000E+00  0.00000000000E+00  0.10615036750E+04  0.10615036750E+04  0.00000000000E+00 0.  1.
          1   -1    0    0  501    0 -0.00000000000E+00 -0.00000000000E+00 -0.18063165643E+03  0.18063165643E+03  0.00000000000E+00 0. -1.
          2    1    1    2  501    0  0.69016728550E+02 -0.53223732337E+02  0.97946809561E+02  0.13110931320E+03  0.00000000000E+00 0.  1.
          1    1    1    2  502    0  0.16942204693E+03  0.54921038201E+01 -0.93379440277E+02  0.19352961804E+03  0.00000000000E+00 0. -1.
         22    1    1    2    0    0 -0.25143233951E+03  0.36174955316E+02  0.80650434127E+03  0.84556259450E+03  0.00000000000E+00 0.  1.
         22    1    1    2    0    0  0.12993564023E+02  0.11556673201E+02  0.69800308066E+02  0.71933805735E+02  0.00000000000E+00 0. -1.
</event>
<event>
 6    1  0.4069520E-005  0.2385266E+03  0.7818608E-02  0.1189769E+00
          2   -1    0    0  502    0  0.00000000000E+00  0.00000000000E+00  0.73715712587E+03  0.73715712587E+03  0.00000000000E+00 0. -1.
          1   -1    0    0  501    0 -0.00000000000E+00 -0.00000000000E+00 -0.18269030836E+03  0.18269030836E+03  0.00000000000E+00 0. -1.
          2    1    1    2  501    0 -0.63513144573E+01  0.12726555005E+03  0.16698827698E+03  0.21005224129E+03  0.00000000000E+00 0. -1.
          1    1    1    2  502    0 -0.44596105877E+02 -0.19103264624E+03 -0.86205683806E+02  0.21427483406E+03  0.00000000000E+00 0. -1.
         22    1    1    2    0    0  0.57894318246E+01  0.77358071509E+02  0.40398811126E+03  0.41136867016E+03  0.00000000000E+00 0. -1.
         22    1    1    2    0    0  0.45157988510E+02 -0.13590975320E+02  0.69696113083E+02  0.84151688725E+02  0.00000000000E+00 0. -1.
</event>
<event>
 6    1  0.4069520E-005  0.2119497E+03  0.7818608E-02  0.1209912E+00
          2   -1    0    0  502    0  0.00000000000E+00  0.00000000000E+00  0.94364061353E+03  0.94364061353E+03  0.00000000000E+00 0.  1.
          1   -1    0    0  501    0 -0.00000000000E+00 -0.00000000000E+00 -0.15349878501E+03  0.15349878501E+03  0.00000000000E+00 0.  1.
          2    1    1    2  501    0 -0.79257282428E+02  0.80502950421E+02  0.40991187738E+03  0.42519429566E+03  0.00000000000E+00 0.  1.
          1    1    1    2  502    0  0.15448754873E+03 -0.78710729417E+02 -0.77881253233E+02  0.19007175288E+03  0.00000000000E+00 0.  1.
         22    1    1    2    0    0 -0.98971640454E+02 -0.38114254722E+02  0.32379619661E+03  0.34072284773E+03  0.00000000000E+00 0.  1.
         22    1    1    2    0    0  0.23741374157E+02  0.36322033717E+02  0.13431500775E+03  0.14115050226E+03  0.00000000000E+00 0.  1.
</event>
<event>
 6    1  0.4069520E-005  0.8329545E+02  0.7818608E-02  0.1344083E+00
          2   -1    0    0  502    0  0.00000000000E+00  0.00000000000E+00  0.36605599223E+02  0.36605599223E+02  0.00000000000E+00 0.  1.
          1   -1    0    0  501    0 -0.00000000000E+00 -0.00000000000E+00 -0.40939929600E+03  0.40939929600E+03  0.00000000000E+00 0.  1.
          2    1    1    2  501    0  0.41438369982E+02 -0.21389173275E+02 -0.90872889989E+02  0.10213969539E+03  0.00000000000E+00 0.  1.
          1    1    1    2  502    0 -0.21944122818E+02  0.22384754164E+02 -0.16708790427E+03  0.17000291026E+03  0.00000000000E+00 0.  1.
         22    1    1    2    0    0  0.19873391223E+02  0.36503607594E+02 -0.11195049625E+03  0.11941682736E+03  0.00000000000E+00 0.  1.
         22    1    1    2    0    0 -0.39367638386E+02 -0.37499188482E+02 -0.28824062695E+01  0.54445462206E+02  0.00000000000E+00 0.  1.
</event>
<event>
 6    1  0.4069520E-005  0.7668734E+02  0.7818608E-02  0.1351898E+00
          2   -1    0    0  502    0  0.00000000000E+00  0.00000000000E+00  0.94407708721E+02  0.94407708721E+02  0.00000000000E+00 0. -1.
          1   -1    0    0  501    0 -0.00000000000E+00 -0.00000000000E+00 -0.43997516733E+03  0.43997516733E+03  0.00000000000E+00 0.  1.
          2    1    1    2  501    0 -0.11029167600E+02 -0.30763932454E+02  0.19499694433E+02  0.38056539004E+02  0.00000000000E+00 0. -1.
          1    1    1    2  502    0 -0.11080013542E+02  0.17687646588E+02 -0.36592632480E+03  0.36652106996E+03  0.00000000000E+00 0.  1.
         22    1    1    2    0    0 -0.14214517481E+02  0.43902401465E+02 -0.44440235939E+02  0.64065653293E+02  0.00000000000E+00 0.  1.
         22    1    1    2    0    0  0.36323698623E+02 -0.30826115599E+02  0.45299407696E+02  0.65739613797E+02  0.00000000000E+00 0. -1.
</event>
<event>
 6    1  0.4069520E-005  0.1357888E+03  0.7818608E-02  0.1284085E+00
          2   -1    0    0  502    0  0.00000000000E+00  0.00000000000E+00  0.55464576662E+02  0.55464576662E+02  0.00000000000E+00 0. -1.
          1   -1    0    0  501    0 -0.00000000000E+00 -0.00000000000E+00 -0.19267092759E+04  0.19267092759E+04  0.00000000000E+00 0. -1.
          2    1    1    2  501    0 -0.71435821925E+02  0.37475596431E+02 -0.12092271565E+03  0.14536093059E+03  0.00000000000E+00 0. -1.
          1    1    1    2  502    0  0.75477238218E+02 -0.64865724324E+02 -0.16889784141E+04  0.16919079346E+04  0.00000000000E+00 0. -1.
         22    1    1    2    0    0  0.22517142743E+02  0.53395500026E+02 -0.83495315137E+02  0.10163448622E+03  0.00000000000E+00 0.  1.
         22    1    1    2    0    0 -0.26558559036E+02 -0.26005372132E+02  0.22151745658E+02  0.43270501193E+02  0.00000000000E+00 0. -1.
</event>
<event>
 6    1  0.4069520E-005  0.5272255E+02  0.7818608E-02  0.1434892E+00
          2   -1    0    0  502    0  0.00000000000E+00  0.00000000000E+00  0.36107757431E+02  0.36107757431E+02  0.00000000000E+00 0. -1.
          1   -1    0    0  501    0 -0.00000000000E+00 -0.00000000000E+00 -0.72955147962E+03  0.72955147962E+03  0.00000000000E+00 0. -1.
          2    1    1    2  501    0  0.17468487040E+02 -0.32761568635E+02 -0.14861416528E+03  0.15318171738E+03  0.00000000000E+00 0. -1.
          1    1    1    2  502    0 -0.47557302131E+02  0.14795555377E+00 -0.45053571621E+03  0.45303879576E+03  0.00000000000E+00 0. -1.
         22    1    1    2    0    0  0.25448691030E+02 -0.17217480010E+02 -0.10401360527E+03  0.10845693880E+03  0.00000000000E+00 0. -1.
         22    1    1    2    0    0  0.46401240609E+01  0.49831093092E+02  0.97197645699E+01  0.50981785113E+02  0.00000000000E+00 0. -1.
</event>
<event>
 6    1  0.4069520E-005  0.7103160E+02  0.7818608E-02  0.1396601E+00
          2   -1    0    0  502    0  0.00000000000E+00  0.00000000000E+00  0.76534495327E+02  0.76534495327E+02  0.00000000000E+00 0. -1.
          1   -1    0    0  501    0 -0.00000000000E+00 -0.00000000000E+00 -0.23641345072E+03  0.23641345072E+03  0.00000000000E+00 0. -1.
          2    1    1    2  501    0 -0.38039277631E+01 -0.39966390785E+02 -0.93541561248E+02  0.10179295624E+03  0.00000000000E+00 0. -1.
          1    1    1    2  502    0 -0.31557161504E+02  0.40391470591E+02 -0.58006318141E+02  0.77408386387E+02  0.00000000000E+00 0. -1.
         22    1    1    2    0    0  0.84449476134E+01  0.24782136712E+02 -0.62759766284E+02  0.68001909563E+02  0.00000000000E+00 0. -1.
         22    1    1    2    0    0  0.26916141654E+02 -0.25207216518E+02  0.54428690276E+02  0.65744693864E+02  0.00000000000E+00 0. -1.
</event>
<event>
 6    1  0.4069520E-005  0.9609678E+02  0.7818608E-02  0.1360844E+00
          2   -1    0    0  502    0  0.00000000000E+00  0.00000000000E+00  0.60651908718E+02  0.60651908718E+02  0.00000000000E+00 0.  1.
          1   -1    0    0  501    0 -0.00000000000E+00 -0.00000000000E+00 -0.23497292978E+04  0.23497292978E+04  0.00000000000E+00 0. -1.
          2    1    1    2  501    0 -0.11408808746E+02 -0.31831728628E+02 -0.76854674936E+02  0.83964640915E+02  0.00000000000E+00 0.  1.
          1    1    1    2  502    0  0.61308769975E+02  0.70333793147E+02 -0.21790946492E+04  0.21810912630E+04  0.00000000000E+00 0. -1.
         22    1    1    2    0    0 -0.22416551273E+02  0.14536178443E+02  0.41732571524E+02  0.49552091587E+02  0.00000000000E+00 0.  1.
         22    1    1    2    0    0 -0.27483409957E+02 -0.53038242961E+02 -0.74860636470E+02  0.95773210930E+02  0.00000000000E+00 0.  1.
</event>
<event>
 6    1  0.4069520E-005  0.1277714E+03  0.7818608E-02  0.1277644E+00
          2   -1    0    0  502    0  0.00000000000E+00  0.00000000000E+00  0.69512435206E+03  0.69512435206E+03  0.00000000000E+00 0. -1.
          1   -1    0    0  501    0 -0.00000000000E+00 -0.00000000000E+00 -0.16989502505E+03  0.16989502505E+03  0.00000000000E+00 0. -1.
          2    1    1    2  501    0 -0.37119498213E+02 -0.46321155500E+02  0.81512649323E+02  0.10083560182E+03  0.00000000000E+00 0. -1.
          1    1    1    2  502    0  0.13984476610E+02  0.68883330900E+02 -0.14561576220E+03  0.16169239024E+03  0.00000000000E+00 0. -1.
         22    1    1    2    0    0  0.15632942821E+02  0.47941830612E+02  0.17436186851E+03  0.18150721532E+03  0.00000000000E+00 0.  1.
         22    1    1    2    0    0  0.75020787816E+01 -0.70504006012E+02  0.41497057138E+03  0.42098416973E+03  0.00000000000E+00 0. -1.
</event>
<event>
 6    1  0.4069520E-005  0.1116251E+03  0.7818608E-02  0.1344143E+00
          2   -1    0    0  502    0  0.00000000000E+00  0.00000000000E+00  0.18516420294E+03  0.18516420294E+03  0.00000000000E+00 0. -1.
          1   -1    0    0  501    0 -0.00000000000E+00 -0.00000000000E+00 -0.63134213564E+03  0.63134213564E+03  0.00000000000E+00 0. -1.
          2    1    1    2  501    0  0.70451995537E+02  0.41358976101E+02 -0.14626958704E+02  0.82993954601E+02  0.00000000000E+00 0. -1.
          1    1    1    2  502    0 -0.77924306359E+02 -0.59002045981E+02 -0.55286577546E+03  0.56143922612E+03  0.00000000000E+00 0. -1.
         22    1    1    2    0    0  0.35787406603E+01  0.39948395251E+02 -0.79089200310E+01  0.40880712860E+02  0.00000000000E+00 0. -1.
         22    1    1    2    0    0  0.38935701612E+01 -0.22305325371E+02  0.12922372149E+03  0.13119244500E+03  0.00000000000E+00 0.  1.
</event>
<event>
 6    1  0.4069520E-005  0.9763611E+02  0.7818608E-02  0.1372296E+00
          2   -1    0    0  502    0  0.00000000000E+00  0.00000000000E+00  0.47708103790E+02  0.47708103790E+02  0.00000000000E+00 0.  1.
          1   -1    0    0  501    0 -0.00000000000E+00 -0.00000000000E+00 -0.57151837896E+03  0.57151837896E+03  0.00000000000E+00 0.  1.
          2    1    1    2  501    0  0.10137074297E+02  0.33371690379E+02 -0.18361977071E+02  0.39415633903E+02  0.00000000000E+00 0.  1.
          1    1    1    2  502    0 -0.44189264387E+02 -0.13056097213E+02 -0.41810440203E+03  0.42063576139E+03  0.00000000000E+00 0.  1.
         22    1    1    2    0    0 -0.13628251907E+02  0.16046888983E+02  0.24480346779E+02  0.32288067060E+02  0.00000000000E+00 0.  1.
         22    1    1    2    0    0  0.47680441997E+02 -0.36362482149E+02 -0.11182424284E+03  0.12688702039E+03  0.00000000000E+00 0.  1.
</event>
<event>
 6    1  0.4069520E-005  0.1298717E+03  0.7818608E-02  0.1229159E+00
          2   -1    0    0  502    0  0.00000000000E+00  0.00000000000E+00  0.28535871103E+03  0.28535871103E+03  0.00000000000E+00 0.  1.
          1   -1    0    0  501    0 -0.00000000000E+00 -0.00000000000E+00 -0.11061920404E+04  0.11061920404E+04  0.00000000000E+00 0.  1.
          2    1    1    2  501    0 -0.12030205572E+03  0.29066382144E+01 -0.88600186823E+00  0.12034042610E+03  0.00000000000E+00 0.  1.
          1    1    1    2  502    0  0.30209592323E+02  0.25487324584E+02 -0.10184762751E+04  0.10192429279E+04  0.00000000000E+00 0.  1.
         22    1    1    2    0    0  0.11531961131E+03 -0.37922419915E+02  0.18629170309E+03  0.22235404500E+03  0.00000000000E+00 0.  1.
         22    1    1    2    0    0 -0.25227147916E+02  0.95284571174E+01  0.12237244504E+02  0.29613352395E+02  0.00000000000E+00 0.  1.
</event>
<event>
 6    1  0.4069520E-005  0.1108590E+03  0.7818608E-02  0.1287204E+00
          2   -1    0    0  502    0  0.00000000000E+00  0.00000000000E+00  0.44975535477E+02  0.44975535477E+02  0.00000000000E+00 0. -1.
          1   -1    0    0  501    0 -0.00000000000E+00 -0.00000000000E+00 -0.67983153598E+03  0.67983153598E+03  0.00000000000E+00 0. -1.
          2    1    1    2  501    0 -0.53861769548E+00  0.48725275307E+02 -0.21878761066E+03  0.22414830167E+03  0.00000000000E+00 0. -1.
          1    1    1    2  502    0  0.41552598699E+02 -0.11708734586E+03 -0.13290922611E+03  0.18193660271E+03  0.00000000000E+00 0. -1.
         22    1    1    2    0    0  0.22332181880E+02  0.56719208747E+02 -0.22084913009E+03  0.22910725272E+03  0.00000000000E+00 0.  1.
         22    1    1    2    0    0 -0.63346162884E+02  0.11642861808E+02 -0.62310033643E+02  0.89614914360E+02  0.00000000000E+00 0. -1.
</event>
<event>
 6    1  0.4069520E-005  0.1299439E+03  0.7818608E-02  0.1244714E+00
          2   -1    0    0  502    0  0.00000000000E+00  0.00000000000E+00  0.72532651023E+02  0.72532651023E+02  0.00000000000E+00 0. -1.
          1   -1    0    0  501    0 -0.00000000000E+00 -0.00000000000E+00 -0.87265285346E+03  0.87265285346E+03  0.00000000000E+00 0. -1.
          2    1    1    2  501    0 -0.72543046677E+02 -0.26501544198E+02 -0.17104506989E+03  0.18767323038E+03  0.00000000000E+00 0. -1.
          1    1    1    2  502    0  0.16714500110E+03 -0.66772190900E+01 -0.55928814116E+03  0.58376815731E+03  0.00000000000E+00 0. -1.
         22    1    1    2    0    0 -0.18860780139E+02 -0.18108267177E+02 -0.77651093582E+02  0.81934917478E+02  0.00000000000E+00 0.  1.
         22    1    1    2    0    0 -0.75741174284E+02  0.51287030465E+02  0.78641021961E+01  0.91809199317E+02  0.00000000000E+00 0. -1.
</event>
<event>
 6    1  0.4069520E-005  0.2659984E+03  0.7818608E-02  0.1226588E+00
          2   -1    0    0  502    0  0.00000000000E+00  0.00000000000E+00  0.10038324915E+04  0.10038324915E+04  0.00000000000E+00 0. -1.
          1   -1    0    0  501    0 -0.00000000000E+00 -0.00000000000E+00 -0.22638528560E+03  0.22638528560E+03  0.00000000000E+00 0.  1.
          2    1    1    2  501    0  0.22515303529E+02  0.23329014706E+02  0.14605564566E+02  0.35559869747E+02  0.00000000000E+00 0. -1.
          1    1    1    2  502    0 -0.17947939329E+03  0.57666416942E+02 -0.15958483945E+03  0.24699309553E+03  0.00000000000E+00 0.  1.
         22    1    1    2    0    0  0.16661350171E+03 -0.68928066891E+02  0.91040365213E+03  0.92808725191E+03  0.00000000000E+00 0. -1.
         22    1    1    2    0    0 -0.96494119488E+01 -0.12067364756E+02  0.12022828659E+02  0.19577559911E+02  0.00000000000E+00 0. -1.
</event>
<event>
 6    1  0.4069520E-005  0.3580367E+02  0.7818608E-02  0.1544873E+00
          2   -1    0    0  502    0  0.00000000000E+00  0.00000000000E+00  0.35271983875E+02  0.35271983875E+02  0.00000000000E+00 0. -1.
          1   -1    0    0  501    0 -0.00000000000E+00 -0.00000000000E+00 -0.11905664010E+04  0.11905664010E+04  0.00000000000E+00 0.  1.
          2    1    1    2  501    0 -0.32588813957E+02 -0.53338168161E+01 -0.15459805884E+03  0.15808554707E+03  0.00000000000E+00 0. -1.
          1    1    1    2  502    0  0.19094602327E+02  0.10568068546E+02 -0.91049810937E+03  0.91075962530E+03  0.00000000000E+00 0.  1.
         22    1    1    2    0    0  0.32672185636E+02 -0.86975113286E+01  0.23796404511E+02  0.41344737092E+02  0.00000000000E+00 0. -1.
         22    1    1    2    0    0 -0.19177974006E+02  0.34632595989E+01 -0.11399465339E+03  0.11564847537E+03  0.00000000000E+00 0. -1.
</event>
<event>
 6    1  0.4069520E-005  0.8591520E+02  0.7818608E-02  0.1314869E+00
          2   -1    0    0  502    0  0.00000000000E+00  0.00000000000E+00  0.33299905734E+02  0.33299905734E+02  0.00000000000E+00 0.  1.
          1   -1    0    0  501    0 -0.00000000000E+00 -0.00000000000E+00 -0.15291605809E+04  0.15291605809E+04  0.00000000000E+00 0.  1.
          2    1    1    2  501    0  0.27409769831E+02  0.33034205784E+02 -0.58575177282E+02  0.72619595342E+02  0.00000000000E+00 0.  1.
          1    1    1    2  502    0  0.20525898024E+02 -0.21682667002E+02 -0.12897076564E+04  0.12900532119E+04  0.00000000000E+00 0.  1.
         22    1    1    2    0    0  0.11775209017E+02  0.45480724169E+02 -0.81781125827E+02  0.94314921195E+02  0.00000000000E+00 0.  1.
         22    1    1    2    0    0 -0.59710876872E+02 -0.56832262951E+02 -0.65796715617E+02  0.10547275817E+03  0.00000000000E+00 0.  1.
</event>
<event>
 6    1  0.4069520E-005  0.1158601E+03  0.7818608E-02  0.1251699E+00
          2   -1    0    0  502    0  0.00000000000E+00  0.00000000000E+00  0.37465047572E+03  0.37465047572E+03  0.00000000000E+00 0.  1.
          1   -1    0    0  501    0 -0.00000000000E+00 -0.00000000000E+00 -0.22256732065E+03  0.22256732065E+03  0.00000000000E+00 0.  1.
          2    1    1    2  501    0  0.15244135765E+01 -0.94363555683E+02  0.27402875076E+03  0.28982505193E+03  0.00000000000E+00 0.  1.
          1    1    1    2  502    0 -0.22727181286E+02 -0.14462068960E+02 -0.13614542776E+03  0.13878491887E+03  0.00000000000E+00 0.  1.
         22    1    1    2    0    0  0.30873537631E+02  0.12439633297E+03 -0.20081502114E+02  0.12973391889E+03  0.00000000000E+00 0.  1.
         22    1    1    2    0    0 -0.96707699217E+01 -0.15570708328E+02  0.34281334174E+02  0.38873906692E+02  0.00000000000E+00 0.  1.
</event>
<event>
 6    1  0.4069520E-005  0.8012745E+02  0.7818608E-02  0.1406894E+00
          2   -1    0    0  502    0  0.00000000000E+00  0.00000000000E+00  0.24249233979E+02  0.24249233979E+02  0.00000000000E+00 0. -1.
          1   -1    0    0  501    0 -0.00000000000E+00 -0.00000000000E+00 -0.15613660330E+04  0.15613660330E+04  0.00000000000E+00 0.  1.
          2    1    1    2  501    0 -0.34740238159E+02  0.20296626014E+01 -0.29952093214E+03  0.30153572337E+03  0.00000000000E+00 0. -1.
          1    1    1    2  502    0  0.38458916388E+02  0.55288058896E+02 -0.10534095271E+04  0.10555602728E+04  0.00000000000E+00 0.  1.
         22    1    1    2    0    0  0.43849000673E+01 -0.21390238877E+02  0.14654143853E+02  0.26296646171E+02  0.00000000000E+00 0. -1.
         22    1    1    2    0    0 -0.81035782962E+01 -0.35927482620E+02 -0.19884048361E+03  0.20222262463E+03  0.00000000000E+00 0. -1.
</event>
<event>
 6    1  0.4069520E-005  0.1010325E+03  0.7818608E-02  0.1279709E+00
          2   -1    0    0  502    0  0.00000000000E+00  0.00000000000E+00  0.53306909434E+02  0.53306909434E+02  0.00000000000E+00 0.  1.
          1   -1    0    0  501    0 -0.00000000000E+00 -0.00000000000E+00 -0.59292737581E+03  0.59292737581E+03  0.00000000000E+00 0. -1.
          2    1    1    2  501    0 -0.53219740954E+02 -0.25791755301E+02 -0.65855229809E+02  0.88512523193E+02  0.00000000000E+00 0.  1.
          1    1    1    2  502    0  0.10334104615E+02 -0.25418224428E+02 -0.40003200513E+03  0.40097192543E+03  0.00000000000E+00 0. -1.
         22    1    1    2    0    0 -0.30436707433E+02 -0.19689863656E+02 -0.17005883432E+02  0.40041028476E+02  0.00000000000E+00 0.  1.
         22    1    1    2    0    0  0.73322343773E+02  0.70899843384E+02 -0.56727348005E+02  0.11670880815E+03  0.00000000000E+00 0. -1.
</event>
<event>
 6    1  0.4069520E-005  0.2976550E+03  0.7818608E-02  0.1150589E+00
          2   -1    0    0  502    0  0.00000000000E+00  0.00000000000E+00  0.11771285778E+03  0.11771285778E+03  0.00000000000E+00 0. -1.
          1   -1    0    0  501    0 -0.00000000000E+00 -0.00000000000E+00 -0.10369910032E+04  0.10369910032E+04  0.00000000000E+00 0.  1.
          2    1    1    2  501    0 -0.29392174814E+02  0.13735524866E+02 -0.41835416024E+03  0.41961025723E+03  0.00000000000E+00 0. -1.
          1    1    1    2  502    0  0.44885048689E+02 -0.56079512987E+02 -0.57500017880E+03  0.57946939953E+03  0.00000000000E+00 0.  1.
         22    1    1    2    0    0 -0.56502584813E+02 -0.18524485528E+02  0.51971878332E+02  0.78973253649E+02  0.00000000000E+00 0.  1.
         22    1    1    2    0    0  0.41009710938E+02  0.60868473650E+02  0.22104315254E+02  0.76650950604E+02  0.00000000000E+00 0. -1.
</event>
<event>
 6    1  0.4069520E-005  0.1864132E+03  0.7818608E-02  0.1206401E+00
          2   -1    0    0  502    0  0.00000000000E+00  0.00000000000E+00  0.10617446251E+04  0.10617446251E+04  0.00000000000E+00 0. -1.
          1   -1    0    0  501    0 -0.00000000000E+00 -0.00000000000E+00 -0.77305793838E+02  0.77305793838E+02  0.00000000000E+00 0. -1.
          2    1    1    2  501    0  0.36696315725E+02  0.33054966358E+02 -0.58052865680E+02  0.76219325649E+02  0.00000000000E+00 0. -1.
          1    1    1    2  502    0 -0.10384284360E+02 -0.31393941352E+02  0.62639866947E+03  0.62727083945E+03  0.00000000000E+00 0. -1.
         22    1    1    2    0    0  0.11565502764E+02  0.53842046552E+02  0.12145386192E+03  0.13335579255E+03  0.00000000000E+00 0.  1.
         22    1    1    2    0    0 -0.37877534128E+02 -0.55503071558E+02  0.29463916557E+03  0.30220446130E+03  0.00000000000E+00 0. -1.
</event>
<event>
 6    1  0.4069520E-005  0.8541079E+02  0.7818608E-02  0.1433401E+00
          2   -1    0    0  502    0  0.00000000000E+00  0.00000000000E+00  0.52615803472E+02  0.52615803472E+02  0.00000000000E+00 0. -1.
          1   -1    0    0  501    0 -0.00000000000E+00 -0.00000000000E+00 -0.28963614720E+03  0.28963614720E+03  0.00000000000E+00 0. -1.
          2    1    1    2  501    0  0.27163984077E+02  0.48006821136E+02 -0.79416425447E+02  0.96692841190E+02  0.00000000000E+00 0. -1.
          1    1    1    2  502    0 -0.29257625634E+02 -0.24875810021E+02 -0.89672417109E+02  0.97549766643E+02  0.00000000000E+00 0. -1.
         22    1    1    2    0    0  0.14024971146E+02 -0.21919419816E+02 -0.10545383184E+03  0.10861708627E+03  0.00000000000E+00 0. -1.
         22    1    1    2    0    0 -0.11931329589E+02 -0.12115912994E+01  0.37522330664E+02  0.39392256570E+02  0.00000000000E+00 0. -1.
</event>
<event>
 6    1  0.4069520E-005  0.2086489E+03  0.7818608E-02  0.1201131E+00
          2   -1    0    0  502    0  0.00000000000E+00  0.00000000000E+00  0.76776647807E+02  0.76776647807E+02  0.00000000000E+00 0. -1.
          1   -1    0    0  501    0 -0.00000000000E+00 -0.00000000000E+00 -0.12332556886E+04  0.12332556886E+04  0.00000000000E+00 0. -1.
          2    1    1    2  501    0 -0.39377720070E+02  0.10155421552E+03 -0.97284216571E+02  0.14604137196E+03  0.00000000000E+00 0. -1.
          1    1    1    2  502    0 -0.11596284554E+02 -0.22879671524E+02 -0.99548752344E+03  0.99581793643E+03  0.00000000000E+00 0. -1.
         22    1    1    2    0    0 -0.40848037670E+02 -0.31642212844E+02 -0.13320324484E+02  0.53359374617E+02  0.00000000000E+00 0. -1.
         22    1    1    2    0    0  0.91822042294E+02 -0.47032331157E+02 -0.50386976272E+02  0.11481365338E+03  0.00000000000E+00 0. -1.
</event>
<event>
 6    1  0.4069520E-005  0.4098359E+02  0.7818608E-02  0.1503533E+00
          2   -1    0    0  502    0  0.00000000000E+00  0.00000000000E+00  0.14814796044E+03  0.14814796044E+03  0.00000000000E+00 0. -1.
          1   -1    0    0  501    0 -0.00000000000E+00 -0.00000000000E+00 -0.13803751482E+03  0.13803751482E+03  0.00000000000E+00 0. -1.
          2    1    1    2  501    0  0.21248571958E+02  0.26273353627E+02 -0.48500432441E+02  0.59110767784E+02  0.00000000000E+00 0. -1.
          1    1    1    2  502    0 -0.33558843183E+02  0.76653899237E+00 -0.48442469427E+02  0.58936036362E+02  0.00000000000E+00 0. -1.
         22    1    1    2    0    0  0.86953152193E+01 -0.38942103982E+02  0.13327304415E+03  0.13911793654E+03  0.00000000000E+00 0. -1.
         22    1    1    2    0    0  0.36149560061E+01  0.11902211363E+02 -0.26219696664E+02  0.29020734577E+02  0.00000000000E+00 0. -1.
</event>
<event>
 6    1  0.4069520E-005  0.1886674E+03  0.7818608E-02  0.1192437E+00
          2   -1    0    0  502    0  0.00000000000E+00  0.00000000000E+00  0.85391090284E+03  0.85391090284E+03  0.00000000000E+00 0. -1.
          1   -1    0    0  501    0 -0.00000000000E+00 -0.00000000000E+00 -0.88924344705E+02  0.88924344705E+02  0.00000000000E+00 0. -1.
          2    1    1    2  501    0 -0.69867616554E+01  0.26656116087E+02  0.11692205403E+03  0.12012547640E+03  0.00000000000E+00 0. -1.
          1    1    1    2  502    0  0.40823641614E+02 -0.19581045902E+03  0.79959251024E+02  0.21541074114E+03  0.00000000000E+00 0. -1.
         22    1    1    2    0    0 -0.81192791677E+02  0.92792531034E+02  0.29281507991E+03  0.31771590180E+03  0.00000000000E+00 0. -1.
         22    1    1    2    0    0  0.47355911718E+02  0.76361811895E+02  0.27529017317E+03  0.28958312820E+03  0.00000000000E+00 0. -1.
</event>
<event>
 6    1  0.4069520E-005  0.2511731E+03  0.7818608E-02  0.1235101E+00
          2   -1    0    0  502    0  0.00000000000E+00  0.00000000000E+00  0.34706731193E+02  0.34706731193E+02  0.00000000000E+00 0. -1.
          1   -1    0    0  501    0 -0.00000000000E+00 -0.00000000000E+00 -0.36569355541E+04  0.36569355541E+04  0.00000000000E+00 0.  1.
          2    1    1    2  501    0  0.11176268663E+02  0.12604606117E+03 -0.24222725456E+03  0.27328842158E+03  0.00000000000E+00 0. -1.
          1    1    1    2  502    0 -0.48920468295E+02 -0.27783296330E+02 -0.30452663382E+04  0.30457859732E+04  0.00000000000E+00 0.  1.
         22    1    1    2    0    0  0.36222160776E+02 -0.11358457416E+03 -0.33657028789E+03  0.35706170211E+03  0.00000000000E+00 0.  1.
         22    1    1    2    0    0  0.15220388562E+01  0.15321809315E+02  0.18350577452E+01  0.15506188439E+02  0.00000000000E+00 0. -1.
</event>
<event>
 6    1  0.4069520E-005  0.9999318E+02  0.7818608E-02  0.1380700E+00
          2   -1    0    0  502    0  0.00000000000E+00  0.00000000000E+00  0.35878656998E+02  0.35878656998E+02  0.00000000000E+00 0. -1.
          1   -1    0    0  501    0 -0.00000000000E+00 -0.00000000000E+00 -0.68904761983E+03  0.68904761983E+03  0.00000000000E+00 0. -1.
          2    1    1    2  501    0  0.10087903294E+02  0.74435625443E+02 -0.26553768156E+03  0.27595776571E+03  0.00000000000E+00 0. -1.
          1    1    1    2  502    0 -0.30216362862E+02 -0.36915956589E+02 -0.26793217376E+03  0.27214603832E+03  0.00000000000E+00 0. -1.
         22    1    1    2    0    0  0.10098328737E+02 -0.13770358887E+02  0.24761917010E+02  0.30079088437E+02  0.00000000000E+00 0. -1.
         22    1    1    2    0    0  0.10030130832E+02 -0.23749309967E+02 -0.14446102452E+03  0.14674338436E+03  0.00000000000E+00 0.  1.
</event>
<event>
 6    1  0.4069520E-005  0.7425946E+02  0.7818608E-02  0.1348958E+00
          2   -1    0    0  502    0  0.00000000000E+00  0.00000000000E+00  0.68638083001E+02  0.68638083001E+02  0.00000000000E+00 0.  1.
          1   -1    0    0  501    0 -0.00000000000E+00 -0.00000000000E+00 -0.69326662976E+03  0.69326662976E+03  0.00000000000E+00 0. -1.
          2    1    1    2  501    0 -0.37166659940E+02 -0.41181661990E+02  0.11587678417E+02  0.56670664249E+02  0.00000000000E+00 0.  1.
          1    1    1    2  502    0  0.70991667315E+01 -0.67076813899E+02 -0.44899350461E+03  0.45403178778E+03  0.00000000000E+00 0. -1.
         22    1    1    2    0    0  0.40771096639E+02  0.11303597878E+03 -0.20033805000E+03  0.23361239072E+03  0.00000000000E+00 0.  1.
         22    1    1    2    0    0 -0.10703603431E+02 -0.47775028935E+01  0.13115329444E+02  0.17589870003E+02  0.00000000000E+00 0. -1.
</event>
<event>
 6    1  0.4069520E-005  0.1980131E+03  0.7818608E-02  0.1263388E+00
          2   -1    0    0  502    0  0.00000000000E+00  0.00000000000E+00  0.11610393272E+03  0.11610393272E+03  0.00000000000E+00 0.  1.
          1   -1    0    0  501    0 -0.00000000000E+00 -0.00000000000E+00 -0.30548856665E+03  0.30548856665E+03  0.00000000000E+00 0.  1.
          2    1    1    2  501    0  0.12806040134E+02  0.95355462387E+02 -0.26482248912E+02  0.99789620595E+02  0.00000000000E+00 0.  1.
          1    1    1    2  502    0 -0.58334590162E+02 -0.19514739106E+02 -0.16085818325E+03  0.17221818885E+03  0.00000000000E+00 0.  1.
         22    1    1    2    0    0  0.36505024754E+02 -0.91235991845E+02 -0.41199112849E+02  0.10655510283E+03  0.00000000000E+00 0.  1.
         22    1    1    2    0    0  0.90235252735E+01  0.15395268564E+02  0.39154911087E+02  0.43029587085E+02  0.00000000000E+00 0. -1.
</event>
<event>
 6    1  0.4069520E-005  0.1371797E+03  0.7818608E-02  0.1299096E+00
          2   -1    0    0  502    0  0.00000000000E+00  0.00000000000E+00  0.15107187825E+03  0.15107187825E+03  0.00000000000E+00 0.  1.
          1   -1    0    0  501    0 -0.00000000000E+00 -0.00000000000E+00 -0.66387841908E+03  0.66387841908E+03  0.00000000000E+00 0.  1.
          2    1    1    2  501    0 -0.11651741059E+02  0.65533605636E+02 -0.18128696422E+02  0.68985985325E+02  0.00000000000E+00 0.  1.
          1    1    1    2  502    0  0.27471858759E+02 -0.12915487776E+03 -0.57307645692E+03  0.58809209393E+03  0.00000000000E+00 0.  1.
         22    1    1    2    0    0 -0.42932550813E+02  0.61040122117E+02 -0.26548533161E+00  0.74626877932E+02  0.00000000000E+00 0.  1.
         22    1    1    2    0    0  0.27112433113E+02  0.25811500088E+01  0.78664097850E+02  0.83245340141E+02  0.00000000000E+00 0.  1.
</event>
<event>
 6    1  0.4069520E-005  0.1480225E+03  0.7818608E-02  0.1241091E+00
          2   -1    0    0  502    0  0.00000000000E+00  0.00000000000E+00  0.35701182851E+03  0.35701182851E+03  0.00000000000E+00 0. -1.
          1   -1    0    0  501    0 -0.00000000000E+00 -0.00000000000E+00 -0.40984839845E+03  0.40984839845E+03  0.00000000000E+00 0. -1.
          2    1    1    2  501    0 -0.69390865754E+02 -0.10889229804E+03  0.14452917642E+03  0.19380739836E+03  0.00000000000E+00 0. -1.
          1    1    1    2  502    0  0.97865987717E+02  0.97947183459E+02 -0.34971804978E+03  0.37613045162E+03  0.00000000000E+00 0. -1.
         22    1    1    2    0    0 -0.73640270691E+01 -0.52203589823E+02  0.96723061452E+02  0.11015804238E+03  0.00000000000E+00 0. -1.
         22    1    1    2    0    0 -0.21111094893E+02  0.63148704402E+02  0.55629241963E+02  0.86764334589E+02  0.00000000000E+00 0.  1.
</event>
<event>
 6    1  0.4069520E-005  0.9586955E+02  0.7818608E-02  0.1300117E+00
          2   -1    0    0  502    0  0.00000000000E+00  0.00000000000E+00  0.10811728849E+03  0.10811728849E+03  0.00000000000E+00 0. -1.
          1   -1    0    0  501    0 -0.00000000000E+00 -0.00000000000E+00 -0.32406724955E+03  0.32406724955E+03  0.00000000000E+00 0. -1.
          2    1    1    2  501    0  0.38797928768E+02 -0.76775973234E+02 -0.81644488950E+02  0.11859870117E+03  0.00000000000E+00 0. -1.
          1    1    1    2  502    0  0.37966818491E+02  0.78539722688E+02 -0.14366985198E+03  0.16808031924E+03  0.00000000000E+00 0. -1.
         22    1    1    2    0    0 -0.45579560339E+01 -0.32050779268E+02 -0.41124338241E+02  0.52337736010E+02  0.00000000000E+00 0.  1.
         22    1    1    2    0    0 -0.72206791225E+02  0.30287029814E+02  0.50488718115E+02  0.93167781614E+02  0.00000000000E+00 0. -1.
</event>
<event>
 6    1  0.4069520E-005  0.1171781E+03  0.7818608E-02  0.1324534E+00
          2   -1    0    0  502    0  0.00000000000E+00  0.00000000000E+00  0.14117211862E+03  0.14117211862E+03  0.00000000000E+00 0.  1.
          1   -1    0    0  501    0 -0.00000000000E+00 -0.00000000000E+00 -0.27429958035E+03  0.27429958035E+03  0.00000000000E+00 0. -1.
          2    1    1    2  501    0  0.22684969960E+02  0.28792020850E+02 -0.22227856254E+02  0.42868005789E+02  0.00000000000E+00 0.  1.
          1    1    1    2  502    0  0.23625991679E+02  0.47704898490E+00 -0.20653751275E+03  0.20788496634E+03  0.00000000000E+00 0. -1.
         22    1    1    2    0    0  0.72151513681E+01  0.26373304102E+02  0.81840672611E+02  0.86287341319E+02  0.00000000000E+00 0.  1.
         22    1    1    2    0    0 -0.53526113007E+02 -0.55642373937E+02  0.13797234661E+02  0.78431385524E+02  0.00000000000E+00 0.  1.
</event>
<event>
 6    1  0.4069520E-005  0.5691268E+03  0.7818608E-02  0.1092933E+00
          2   -1    0    0  502    0  0.00000000000E+00  0.00000000000E+00  0.13071398485E+04  0.13071398485E+04  0.00000000000E+00 0. -1.
          1   -1    0    0  501    0 -0.00000000000E+00 -0.00000000000E+00 -0.29060258540E+03  0.29060258540E+03  0.00000000000E+00 0.  1.
          2    1    1    2  501    0  0.35231581202E+02 -0.13523185742E+03  0.37557973167E+03  0.40073564156E+03  0.00000000000E+00 0. -1.
          1    1    1    2  502    0  0.38298487389E+03  0.11521203080E+03 -0.25096555065E+02  0.40072567019E+03  0.00000000000E+00 0.  1.
         22    1    1    2    0    0 -0.39294352168E+03  0.45434772842E+02  0.57043259962E+03  0.69416300717E+03  0.00000000000E+00 0.  1.
         22    1    1    2    0    0 -0.25272933419E+02 -0.25414946221E+02  0.95621486883E+02  0.10211811499E+03  0.00000000000E+00 0. -1.
</event>
<event>
 6    1  0.4069520E-005  0.1726638E+03  0.7818608E-02  0.1238057E+00
          2   -1    0    0  502    0  0.00000000000E+00  0.00000000000E+00  0.40404358245E+03  0.40404358245E+03  0.00000000000E+00 0. -1.
          1   -1    0    0  501    0 -0.00000000000E+00 -0.00000000000E+00 -0.65333787099E+02  0.65333787099E+02  0.00000000000E+00 0. -1.
          2    1    1    2  501    0 -0.65060321238E+02 -0.73687060976E+02  0.51239117124E+02  0.11085159213E+03  0.00000000000E+00 0. -1.
          1    1    1    2  502    0  0.38012678613E+02  0.72557195024E+02  0.12918349106E+03  0.15296367100E+03  0.00000000000E+00 0. -1.
         22    1    1    2    0    0  0.70466106433E+02  0.11415630419E+02  0.46487895527E+02  0.85187517889E+02  0.00000000000E+00 0. -1.
         22    1    1    2    0    0 -0.43418463808E+02 -0.10285764467E+02  0.11179929164E+03  0.12037458852E+03  0.00000000000E+00 0. -1.
</event>
<event>
 6    1  0.4069520E-005  0.1276636E+03  0.7818608E-02  0.1362622E+00
          2   -1    0    0  502    0  0.00000000000E+00  0.00000000000E+00  0.18218939249E+02  0.18218939249E+02  0.00000000000E+00 0. -1.
          1   -1    0    0  501    0 -0.00000000000E+00 -0.00000000000E+00 -0.15109624084E+04  0.15109624084E+04  0.00000000000E+00 0. -1.
          2    1    1    2  501    0  0.55424430121E+01  0.25983230199E+02 -0.50417278946E+02  0.56989024755E+02  0.00000000000E+00 0. -1.
          1    1    1    2  502    0 -0.93328381493E+02  0.93855792940E+01 -0.98368544060E+03  0.98814741913E+03  0.00000000000E+00 0. -1.
         22    1    1    2    0    0  0.76734360084E+02 -0.35809821768E+02 -0.46406397925E+03  0.47172649087E+03  0.00000000000E+00 0. -1.
         22    1    1    2    0    0  0.11051578397E+02  0.44101227474E+00  0.54232296296E+01  0.12318412905E+02  0.00000000000E+00 0. -1.
</event>
<event>
 6    1  0.4069520E-005  0.1263142E+03  0.7818608E-02  0.1301586E+00
          2   -1    0    0  502    0  0.00000000000E+00  0.00000000000E+00  0.12474375114E+03  0.12474375114E+03  0.00000000000E+00 0. -1.
          1   -1    0    0  501    0 -0.00000000000E+00 -0.00000000000E+00 -0.80504543366E+03  0.80504543366E+03  0.00000000000E+00 0. -1.
          2    1    1    2  501    0  0.74072773672E+01  0.32711874320E+02 -0.10155887493E+02  0.35043922872E+02  0.00000000000E+00 0. -1.
          1    1    1    2  502    0 -0.30676270499E+02 -0.11792004873E+03 -0.72367346467E+03  0.73385928823E+03  0.00000000000E+00 0. -1.
         22    1    1    2    0    0 -0.33235686294E+02 -0.23797644843E+01  0.45429543319E+02  0.56339307136E+02  0.00000000000E+00 0. -1.
         22    1    1    2    0    0  0.56504679426E+02  0.87587938897E+02  0.80981263227E+01  0.10454666655E+03  0.00000000000E+00 0. -1.
</event>
<event>
 6    1  0.4069520E-005  0.2067271E+03  0.7818608E-02  0.1155369E+00
          2   -1    0    0  502    0  0.00000000000E+00  0.00000000000E+00  0.10881175135E+04  0.10881175135E+04  0.00000000000E+00 0.  1.
          1   -1    0    0  501    0 -0.00000000000E+00 -0.00000000000E+00 -0.68793946286E+02  0.68793946286E+02  0.00000000000E+00 0.  1.
          2    1    1    2  501    0 -0.15421954091E+03 -0.86193198215E+02  0.73766609554E+03  0.75852765456E+03  0.00000000000E+00 0.  1.
          1    1    1    2  502    0  0.12152292033E+03 -0.51816979248E+01  0.12750665002E+03  0.17621752455E+03  0.00000000000E+00 0.  1.
         22    1    1    2    0    0  0.28216600833E+02  0.12392688936E+03  0.12078509066E+03  0.17533707136E+03  0.00000000000E+00 0.  1.
         22    1    1    2    0    0  0.44800197440E+01 -0.32551993219E+02  0.33365730956E+02  0.46829209279E+02  0.00000000000E+00 0. -1.
</event>
<event>
 6    1  0.4069520E-005  0.2130210E+03  0.7818608E-02  0.1204526E+00
          2   -1    0    0  502    0  0.00000000000E+00  0.00000000000E+00  0.54261681639E+03  0.54261681639E+03  0.00000000000E+00 0. -1.
          1   -1    0    0  501    0 -0.00000000000E+00 -0.00000000000E+00 -0.11573403488E+04  0.11573403488E+04  0.00000000000E+00 0.  1.
          2    1    1    2  501    0 -0.86516095230E+02 -0.12064876671E+03  0.13617837547E+03  0.20145895261E+03  0.00000000000E+00 0. -1.
          1    1    1    2  502    0  0.16522549460E+03  0.82332578336E+02 -0.11018199778E+04  0.11171774169E+04  0.00000000000E+00 0.  1.
         22    1    1    2    0    0  0.78825735909E+01  0.47324417379E+02  0.21212660763E+03  0.21748432843E+03  0.00000000000E+00 0. -1.
         22    1    1    2    0    0 -0.86591972961E+02 -0.90082290100E+01  0.13879146229E+03  0.16383646717E+03  0.00000000000E+00 0.  1.
</event>
<event>
 6    1  0.4069520E-005  0.1184932E+03  0.7818608E-02  0.1293062E+00
          2   -1    0    0  502    0  0.00000000000E+00  0.00000000000E+00  0.24229616870E+03  0.24229616870E+03  0.00000000000E+00 0.  1.
          1   -1    0    0  501    0 -0.00000000000E+00 -0.00000000000E+00 -0.31661843361E+03  0.31661843361E+03  0.00000000000E+00 0.  1.
          2    1    1    2  501    0 -0.17391492515E+02 -0.25395202719E+02  0.97738608565E+00  0.30795058315E+02  0.00000000000E+00 0.  1.
          1    1    1    2  502    0  0.21759040366E+02  0.34604222803E+00 -0.28228902283E+03  0.28312659358E+03  0.00000000000E+00 0.  1.
         22    1    1    2    0    0 -0.39777000191E+02  0.15202569177E+02  0.20368835397E+03  0.20809198302E+03  0.00000000000E+00 0.  1.
         22    1    1    2    0    0  0.35409452340E+02  0.98465913146E+01  0.33010178514E+01  0.36900967391E+02  0.00000000000E+00 0.  1.
</event>
<event>
 6    1  0.4069520E-005  0.8761115E+02  0.7818608E-02  0.1313554E+00
          2   -1    0    0  502    0  0.00000000000E+00  0.00000000000E+00  0.63546785385E+03  0.63546785385E+03  0.00000000000E+00 0.  1.
          1   -1    0    0  501    0 -0.00000000000E+00 -0.00000000000E+00 -0.17118864279E+03  0.17118864279E+03  0.00000000000E+00 0. -1.
          2    1    1    2  501    0 -0.22115909764E+02  0.90007743814E+01  0.37759639007E+02  0.44675695205E+02  0.00000000000E+00 0.  1.
          1    1    1    2  502    0 -0.56657151757E+02 -0.18428851864E+02 -0.15293143962E+03  0.16412702596E+03  0.00000000000E+00 0. -1.
         22    1    1    2    0    0  0.10640420683E+03  0.31478338608E+02  0.46565059525E+03  0.47868906180E+03  0.00000000000E+00 0.  1.
         22    1    1    2    0    0 -0.27631145308E+02 -0.22050261126E+02  0.11380041642E+03  0.11916471367E+03  0.00000000000E+00 0.  1.
</event>
<event>
 6    1  0.4069520E-005  0.2200331E+03  0.7818608E-02  0.1241445E+00
          2   -1    0    0  502    0  0.00000000000E+00  0.00000000000E+00  0.36146050497E+03  0.36146050497E+03  0.00000000000E+00 0. -1.
          1   -1    0    0  501    0 -0.00000000000E+00 -0.00000000000E+00 -0.34506878631E+03  0.34506878631E+03  0.00000000000E+00 0.  1.
          2    1    1    2  501    0 -0.12015069087E+03 -0.52580103429E+02  0.11093310410E+03  0.17177604425E+03  0.00000000000E+00 0. -1.
          1    1    1    2  502    0  0.14646362083E+03 -0.30395381623E+02 -0.26535448932E+03  0.30461200970E+03  0.00000000000E+00 0.  1.
         22    1    1    2    0    0 -0.45206685245E+02  0.89912458118E+02  0.59264009450E+02  0.11679091288E+03  0.00000000000E+00 0.  1.
         22    1    1    2    0    0  0.18893755290E+02 -0.69369730666E+01  0.11154909443E+03  0.11335032445E+03  0.00000000000E+00 0. -1.
</event>
<event>
 6    1  0.4069520E-005  0.9093107E+02  0.7818608E-02  0.1367778E+00
          2   -1    0    0  502    0  0.00000000000E+00  0.00000000000E+00  0.11412651032E+03  0.11412651032E+03  0.00000000000E+00 0. -1.
          1   -1    0    0  501    0 -0.00000000000E+00 -0.00000000000E+00 -0.27991383242E+03  0.27991383242E+03  0.00000000000E+00 0.  1.
          2    1    1    2  501    0  0.49292027140E+02  0.32529926055E+02 -0.30019472771E+02  0.66250047352E+02  0.00000000000E+00 0. -1.
          1    1    1    2  502    0 -0.42650071487E+02 -0.14282121325E+02 -0.18291660159E+03  0.18836531189E+03  0.00000000000E+00 0.  1.
         22    1    1    2    0    0  0.13220392407E+02 -0.38105242925E+02 -0.34503032579E+02  0.53077750244E+02  0.00000000000E+00 0. -1.
         22    1    1    2    0    0 -0.19862348061E+02  0.19857438195E+02  0.81651784845E+02  0.86347233253E+02  0.00000000000E+00 0. -1.
</event>
<event>
 6    1  0.4069520E-005  0.7953220E+02  0.7818608E-02  0.1352578E+00
          2   -1    0    0  502    0  0.00000000000E+00  0.00000000000E+00  0.56299283073E+03  0.56299283073E+03  0.00000000000E+00 0. -1.
          1   -1    0    0  501    0 -0.00000000000E+00 -0.00000000000E+00 -0.63557104982E+02  0.63557104982E+02  0.00000000000E+00 0. -1.
          2    1    1    2  501    0 -0.25145180816E+02  0.12088851602E+02  0.77310961666E+01  0.28951516355E+02  0.00000000000E+00 0. -1.
          1    1    1    2  502    0 -0.19344959738E+02 -0.11023891657E+03  0.45662808878E+02  0.12087985071E+03  0.00000000000E+00 0. -1.
         22    1    1    2    0    0  0.61455391107E+02  0.74206720386E+02  0.43471381187E+03  0.44526340595E+03  0.00000000000E+00 0. -1.
         22    1    1    2    0    0 -0.16965250553E+02  0.23943344581E+02  0.11328008833E+02  0.31455162695E+02  0.00000000000E+00 0. -1.
</event>
<event>
 6    1  0.4069520E-005  0.9719979E+02  0.7818608E-02  0.1315716E+00
          2   -1    0    0  502    0  0.00000000000E+00  0.00000000000E+00  0.15191558246E+03  0.15191558246E+03  0.00000000000E+00 0. -1.
          1   -1    0    0  501    0 -0.00000000000E+00 -0.00000000000E+00 -0.48474797006E+03  0.48474797006E+03  0.00000000000E+00 0.  1.
          2    1    1    2  501    0  0.67154183823E+01  0.21330948337E+02  0.32462801246E+02  0.39420041422E+02  0.00000000000E+00 0. -1.
          1    1    1    2  502    0  0.66737800138E+02 -0.67057783534E+02 -0.42141975463E+03  0.43190889073E+03  0.00000000000E+00 0.  1.
         22    1    1    2    0    0 -0.52147675700E+02 -0.21886900753E+02 -0.21231393043E+02  0.60408513936E+02  0.00000000000E+00 0.  1.
         22    1    1    2    0    0 -0.21305542820E+02  0.67613735950E+02  0.77355958829E+02  0.10492610643E+03  0.00000000000E+00 0. -1.
</event>
<event>
 6    1  0.4069520E-005  0.7318006E+02  0.7818608E-02  0.1371221E+00
          2   -1    0    0  502    0  0.00000000000E+00  0.00000000000E+00  0.83386141902E+03  0.83386141902E+03  0.00000000000E+00 0.  1.
          1   -1    0    0  501    0 -0.00000000000E+00 -0.00000000000E+00 -0.16824373878E+02  0.16824373878E+02  0.00000000000E+00 0.  1.
          2    1    1    2  501    0  0.22605971185E+02  0.83897444877E+01  0.70112027003E+02  0.74142525424E+02  0.00000000000E+00 0.  1.
          1    1    1    2  502    0 -0.59681158191E+02 -0.98583122450E+01  0.10917018691E+03  0.12480847997E+03  0.00000000000E+00 0.  1.
         22    1    1    2    0    0  0.74772675031E+02  0.35663377415E+02  0.42245884318E+03  0.43050470798E+03  0.00000000000E+00 0.  1.
         22    1    1    2    0    0 -0.37697488025E+02 -0.34194809657E+02  0.21529598805E+03  0.22123007952E+03  0.00000000000E+00 0.  1.
</event>
<event>
 6    1  0.4069520E-005  0.1317146E+03  0.7818608E-02  0.1340739E+00
          2   -1    0    0  502    0  0.00000000000E+00  0.00000000000E+00  0.30300601786E+02  0.30300601786E+02  0.00000000000E+00 0.  1.
          1   -1    0    0  501    0 -0.00000000000E+00 -0.00000000000E+00 -0.70722366966E+03  0.70722366966E+03  0.00000000000E+00 0. -1.
          2    1    1    2  501    0  0.29433709488E+02 -0.36251189649E+02 -0.54361573353E+02  0.71663607658E+02  0.00000000000E+00 0.  1.
          1    1    1    2  502    0  0.41629698739E+01 -0.37741030362E+02 -0.38742287082E+03  0.38927907281E+03  0.00000000000E+00 0. -1.
         22    1    1    2    0    0 -0.32345695921E+01  0.14253596120E+02  0.12995603229E+02  0.19557943299E+02  0.00000000000E+00 0.  1.
         22    1    1    2    0    0 -0.30362109769E+02  0.59738623891E+02 -0.24813422693E+03  0.25702364768E+03  0.00000000000E+00 0.  1.
</event>
<event>
 6    1  0.4069520E-005  0.2090525E+03  0.7818608E-02  0.1276636E+00
          2   -1    0    0  502    0  0.00000000000E+00  0.00000000000E+00  0.56186367165E+02  0.56186367165E+02  0.00000000000E+00 0. -1.
          1   -1    0    0  501    0 -0.00000000000E+00 -0.00000000000E+00 -0.91661551030E+03  0.91661551030E+03  0.00000000000E+00 0.  1.
          2    1    1    2  501    0 -0.30130542252E+01 -0.34435232107E+02 -0.58185627003E+02  0.67678880722E+02  0.00000000000E+00 0. -1.
          1    1    1    2  502    0  0.13123847512E+03  0.15482792215E+03 -0.41113772737E+03  0.45850785565E+03  0.00000000000E+00 0.  1.
         22    1    1    2    0    0 -0.13063227699E+03 -0.10890518017E+03 -0.39813136790E+03  0.43293615715E+03  0.00000000000E+00 0. -1.
         22    1    1    2    0    0  0.24068560902E+01 -0.11487509876E+02  0.70255791415E+01  0.13678983941E+02  0.00000000000E+00 0. -1.
</event>
<event>
 6    1  0.4069520E-005  0.1082748E+03  0.7818608E-02  0.1328177E+00
          2   -1    0    0  502    0  0.00000000000E+00  0.00000000000E+00  0.20800144691E+03  0.20800144691E+03  0.00000000000E+00 0. -1.
          1   -1    0    0  501    0 -0.00000000000E+00 -0.00000000000E+00 -0.28906903576E+03  0.28906903576E+03  0.00000000000E+00 0. -1.
          2    1    1    2  501    0 -0.90282089945E+01  0.20654949796E+02 -0.28639785641E+02  0.36446849387E+02  0.00000000000E+00 0. -1.
          1    1    1    2  502    0  0.38382115162E+02 -0.78548118074E+02 -0.22264176513E+03  0.23919103076E+03  0.00000000000E+00 0. -1.
         22    1    1    2    0    0  0.13150089870E+01  0.69437756122E+02  0.26994516809E+02  0.74511979988E+02  0.00000000000E+00 0. -1.
         22    1    1    2    0    0 -0.30668915154E+02 -0.11544587844E+02  0.14321944512E+03  0.14692062253E+03  0.00000000000E+00 0. -1.
</event>
<event>
 6    1  0.4069520E-005  0.1526208E+03  0.7818608E-02  0.1264081E+00
          2   -1    0    0  502    0  0.00000000000E+00  0.00000000000E+00  0.20687190245E+03  0.20687190245E+03  0.00000000000E+00 0. -1.
          1   -1    0    0  501    0 -0.00000000000E+00 -0.00000000000E+00 -0.11975796658E+03  0.11975796658E+03  0.00000000000E+00 0.  1.
          2    1    1    2  501    0  0.33305928964E+02 -0.47666678291E+02 -0.14619297084E+02  0.59959327637E+02  0.00000000000E+00 0. -1.
          1    1    1    2  502    0 -0.25920006879E+02  0.92499556716E+02 -0.59200950310E+01  0.96244803882E+02  0.00000000000E+00 0.  1.
         22    1    1    2    0    0 -0.36295090498E+02 -0.12684068357E+02 -0.14311155114E+02  0.41024728457E+02  0.00000000000E+00 0. -1.
         22    1    1    2    0    0  0.28909168412E+02 -0.32148810068E+02  0.12196448310E+03  0.12940100906E+03  0.00000000000E+00 0. -1.
</event>
<event>
 6    1  0.4069520E-005  0.1807236E+03  0.7818608E-02  0.1168865E+00
          2   -1    0    0  502    0  0.00000000000E+00  0.00000000000E+00  0.64575762415E+03  0.64575762415E+03  0.00000000000E+00 0. -1.
          1   -1    0    0  501    0 -0.00000000000E+00 -0.00000000000E+00 -0.33743553833E+03  0.33743553833E+03  0.00000000000E+00 0. -1.
          2    1    1    2  501    0 -0.16465731936E+03 -0.75116367692E+02  0.11271018164E+03  0.21320902082E+03  0.00000000000E+00 0. -1.
          1    1    1    2  502    0  0.52946507859E+02 -0.21841516589E+02 -0.26454765197E+03  0.27067664233E+03  0.00000000000E+00 0. -1.
         22    1    1    2    0    0  0.13628645788E+03  0.95283160287E+02  0.42502722043E+03  0.45640006282E+03  0.00000000000E+00 0. -1.
         22    1    1    2    0    0 -0.24575646374E+02  0.16747239947E+01  0.35132335712E+02  0.42907436508E+02  0.00000000000E+00 0.  1.
</event>
<event>
 6    1  0.4069520E-005  0.3164032E+03  0.7818608E-02  0.1139263E+00
          2   -1    0    0  502    0  0.00000000000E+00  0.00000000000E+00  0.45807815127E+02  0.45807815127E+02  0.00000000000E+00 0.  1.
          1   -1    0    0  501    0 -0.00000000000E+00 -0.00000000000E+00 -0.13870235099E+04  0.13870235099E+04  0.00000000000E+00 0. -1.
          2    1    1    2  501    0  0.15882117858E+03  0.63561185312E+02 -0.50221420259E+03  0.53054999419E+03  0.00000000000E+00 0.  1.
          1    1    1    2  502    0 -0.31940164448E+01 -0.23089409183E+02 -0.53670303509E+03  0.53720896347E+03  0.00000000000E+00 0. -1.
         22    1    1    2    0    0 -0.63824465350E+02  0.17084388368E+01 -0.23539226277E+03  0.24389751641E+03  0.00000000000E+00 0. -1.
         22    1    1    2    0    0 -0.91802696784E+02 -0.42180214966E+02 -0.66906194364E+02  0.12117485100E+03  0.00000000000E+00 0. -1.
</event>
<event>
 6    1  0.4069520E-005  0.3820699E+03  0.7818608E-02  0.1160783E+00
          2   -1    0    0  502    0  0.00000000000E+00  0.00000000000E+00  0.15830620689E+03  0.15830620689E+03  0.00000000000E+00 0. -1.
          1   -1    0    0  501    0 -0.00000000000E+00 -0.00000000000E+00 -0.38435198085E+03  0.38435198085E+03  0.00000000000E+00 0. -1.
          2    1    1    2  501    0  0.76272031500E+02  0.15357222709E+03 -0.23585085772E+03  0.29159471671E+03  0.00000000000E+00 0. -1.
          1    1    1    2  502    0  0.26446513057E+02 -0.58307054928E+02  0.12206158897E+02  0.65177611357E+02  0.00000000000E+00 0. -1.
         22    1    1    2    0    0  0.14125645826E+02  0.17043038086E+02  0.78711148238E+01  0.23493689914E+02  0.00000000000E+00 0.  1.
         22    1    1    2    0    0 -0.11684419038E+03 -0.11230821025E+03 -0.10272189957E+02  0.16239216977E+03  0.00000000000E+00 0. -1.
</event>
<event>
 6    1  0.4069520E-005  0.7216278E+02  0.7818608E-02  0.1356318E+00
          2   -1    0    0  502    0  0.00000000000E+00  0.00000000000E+00  0.33321799223E+03  0.33321799223E+03  0.00000000000E+00 0.  1.
          1   -1    0    0  501    0 -0.00000000000E+00 -0.00000000000E+00 -0.33222677259E+02  0.33222677259E+02  0.00000000000E+00 0.  1.
          2    1    1    2  501    0 -0.21314272862E+02  0.37798269293E+01  0.38359954619E+02  0.44046242038E+02  0.00000000000E+00 0.  1.
          1    1    1    2  502    0 -0.16174605322E+02 -0.24999790906E+02  0.47649254893E+00  0.29779765745E+02  0.00000000000E+00 0.  1.
         22    1    1    2    0    0  0.71036275706E+02  0.23837490728E+02  0.24318295881E+03  0.25446479105E+03  0.00000000000E+00 0.  1.
         22    1    1    2    0    0 -0.33547397521E+02 -0.26175267509E+01  0.17975908994E+02  0.38149870654E+02  0.00000000000E+00 0.  1.
</event>
<event>
 6    1  0.4069520E-005  0.3385529E+03  0.7818608E-02  0.1108832E+00
          2   -1    0    0  502    0  0.00000000000E+00  0.00000000000E+00  0.28836432707E+03  0.28836432707E+03  0.00000000000E+00 0. -1.
          1   -1    0    0  501    0 -0.00000000000E+00 -0.00000000000E+00 -0.75033912181E+03  0.75033912181E+03  0.00000000000E+00 0.  1.
          2    1    1    2  501    0 -0.20038290424E+02 -0.15058172858E+03 -0.12376284831E+03  0.19594293222E+03  0.00000000000E+00 0. -1.
          1    1    1    2  502    0  0.18215658888E+02  0.21736292989E+02 -0.55894905546E+03  0.55966804738E+03  0.00000000000E+00 0.  1.
         22    1    1    2    0    0  0.30236648108E+02  0.10457549046E+03  0.73895334981E+02  0.13157054619E+03  0.00000000000E+00 0. -1.
         22    1    1    2    0    0 -0.28414016572E+02  0.24269945135E+02  0.14684177404E+03  0.15152192309E+03  0.00000000000E+00 0. -1.
</event>
<event>
 6    1  0.4069520E-005  0.8421390E+02  0.7818608E-02  0.1354526E+00
          2   -1    0    0  502    0  0.00000000000E+00  0.00000000000E+00  0.19607673876E+03  0.19607673876E+03  0.00000000000E+00 0. -1.
          1   -1    0    0  501    0 -0.00000000000E+00 -0.00000000000E+00 -0.75874199112E+02  0.75874199112E+02  0.00000000000E+00 0. -1.
          2    1    1    2  501    0  0.43855004314E+02  0.16315341645E+02  0.23345836926E+02  0.52292254476E+02  0.00000000000E+00 0. -1.
          1    1    1    2  502    0 -0.44259955138E+02 -0.52418801265E+02  0.16973807301E+02  0.70673789265E+02  0.00000000000E+00 0. -1.
         22    1    1    2    0    0 -0.39222658309E+02  0.20293158483E+02  0.94154065231E+02  0.10399623650E+03  0.00000000000E+00 0. -1.
         22    1    1    2    0    0  0.39627609132E+02  0.15810301137E+02 -0.14271169813E+02  0.44988657631E+02  0.00000000000E+00 0. -1.
</event>
<event>
 6    1  0.4069520E-005  0.7457848E+02  0.7818608E-02  0.1349025E+00
          2   -1    0    0  502    0  0.00000000000E+00  0.00000000000E+00  0.25771451122E+02  0.25771451122E+02  0.00000000000E+00 0.  1.
          1   -1    0    0  501    0 -0.00000000000E+00 -0.00000000000E+00 -0.11999182077E+04  0.11999182077E+04  0.00000000000E+00 0. -1.
          2    1    1    2  501    0  0.24317859059E+02 -0.10610988000E+02 -0.25829079669E+02  0.37028268824E+02  0.00000000000E+00 0.  1.
          1    1    1    2  502    0 -0.14218853058E+02  0.14112579885E+02 -0.97817736278E+03  0.97838248847E+03  0.00000000000E+00 0. -1.
         22    1    1    2    0    0  0.50287292972E+02  0.15057250322E+02 -0.41329705176E+02  0.66810756257E+02  0.00000000000E+00 0.  1.
         22    1    1    2    0    0 -0.60386298973E+02 -0.18558842208E+02 -0.12881060893E+03  0.14346814525E+03  0.00000000000E+00 0.  1.
</event>
<event>
 6    1  0.4069520E-005  0.6363880E+02  0.7818608E-02  0.1386372E+00
          2   -1    0    0  502    0  0.00000000000E+00  0.00000000000E+00  0.39367470714E+03  0.39367470714E+03  0.00000000000E+00 0.  1.
          1   -1    0    0  501    0 -0.00000000000E+00 -0.00000000000E+00 -0.53933313480E+03  0.53933313480E+03  0.00000000000E+00 0. -1.
          2    1    1    2  501    0  0.34057626600E+02 -0.44758323235E+01  0.18379395816E+03  0.18697639975E+03  0.00000000000E+00 0.  1.
          1    1    1    2  502    0 -0.25471699944E+02 -0.16716500038E+02 -0.51644229530E+03  0.51734021035E+03  0.00000000000E+00 0. -1.
         22    1    1    2    0    0 -0.31467929238E+02  0.42510749720E+02  0.16569616799E+02  0.55425144232E+02  0.00000000000E+00 0.  1.
         22    1    1    2    0    0  0.22882002581E+02 -0.21318417359E+02  0.17042029267E+03  0.17326608761E+03  0.00000000000E+00 0.  1.
</event>
<event>
 6    1  0.4069520E-005  0.8550143E+02  0.7818608E-02  0.1332832E+00
          2   -1    0    0  502    0  0.00000000000E+00  0.00000000000E+00  0.33801522040E+02  0.33801522040E+02  0.00000000000E+00 0. -1.
          1   -1    0    0  501    0 -0.00000000000E+00 -0.00000000000E+00 -0.47482940251E+03  0.47482940251E+03  0.00000000000E+00 0. -1.
          2    1    1    2  501    0  0.24043920131E+02  0.39060416302E+02 -0.13965067215E+03  0.14699025971E+03  0.00000000000E+00 0. -1.
          1    1    1    2  502    0 -0.54182403503E+02 -0.46829064980E+02 -0.94153919248E+02  0.11829477878E+03  0.00000000000E+00 0. -1.
         22    1    1    2    0    0 -0.18655741581E+02  0.44905782236E+02 -0.15613908778E+03  0.16353586978E+03  0.00000000000E+00 0. -1.
         22    1    1    2    0    0  0.48794224954E+02 -0.37137133558E+02 -0.51084201292E+02  0.79810016285E+02  0.00000000000E+00 0. -1.
</event>
<event>
 6    1  0.4069520E-005  0.5804726E+02  0.7818608E-02  0.1417216E+00
          2   -1    0    0  502    0  0.00000000000E+00  0.00000000000E+00  0.24623615402E+03  0.24623615402E+03  0.00000000000E+00 0. -1.
          1   -1    0    0  501    0 -0.00000000000E+00 -0.00000000000E+00 -0.37266927932E+03  0.37266927932E+03  0.00000000000E+00 0.  1.
          2    1    1    2  501    0 -0.43669595869E+02  0.28966338811E+02 -0.14420178303E+02  0.54350933109E+02  0.00000000000E+00 0. -1.
          1    1    1    2  502    0  0.24281562369E+02 -0.26468739993E+01 -0.31832168136E+03  0.31925740874E+03  0.00000000000E+00 0.  1.
         22    1    1    2    0    0  0.15035530103E+00  0.17991033600E+02 -0.12053089010E+02  0.21655873369E+02  0.00000000000E+00 0. -1.
         22    1    1    2    0    0  0.19237678200E+02 -0.44310498412E+02  0.21836182338E+03  0.22364121812E+03  0.00000000000E+00 0. -1.
</event>
<event>
 6    1  0.4069520E-005  0.1289049E+03  0.7818608E-02  0.1274520E+00
          2   -1    0    0  502    0  0.00000000000E+00  0.00000000000E+00  0.20405611412E+02  0.20405611412E+02  0.00000000000E+00 0. -1.
          1   -1    0    0  501    0 -0.00000000000E+00 -0.00000000000E+00 -0.18713275400E+04  0.18713275400E+04  0.00000000000E+00 0. -1.
          2    1    1    2  501    0  0.13741097041E+02 -0.36557758364E+02 -0.12994769591E+03  0.13568968684E+03  0.00000000000E+00 0. -1.
          1    1    1    2  502    0  0.28459180948E+02 -0.10001785338E+02 -0.14542921513E+04  0.14546049711E+04  0.00000000000E+00 0. -1.
         22    1    1    2    0    0  0.42595252668E+02  0.11571073321E+02 -0.12585677468E+03  0.13337230980E+03  0.00000000000E+00 0. -1.
         22    1    1    2    0    0 -0.84795530658E+02  0.34988470380E+02 -0.14082530673E+03  0.16806618368E+03  0.00000000000E+00 0. -1.
</event>
<event>
 6    1  0.4069520E-005  0.1228251E+03  0.7818608E-02  0.1321929E+00
          2   -1    0    0  502    0  0.00000000000E+00  0.00000000000E+00  0.59678138885E+02  0.59678138885E+02  0.00000000000E+00 0. -1.
          1   -1    0    0  501    0 -0.00000000000E+00 -0.00000000000E+00 -0.35277649968E+03  0.35277649968E+03  0.00000000000E+00 0. -1.
          2    1    1    2  501    0  0.49768132878E+01 -0.70369087516E+02 -0.52483245681E+02  0.87926493309E+02  0.00000000000E+00 0. -1.
          1    1    1    2  502    0 -0.12118082781E+02  0.60072195885E+02 -0.16935670604E+03  0.18010333292E+03  0.00000000000E+00 0. -1.
         22    1    1    2    0    0 -0.19903110041E+02 -0.15257118931E+02  0.28494557024E+02  0.37958572778E+02  0.00000000000E+00 0. -1.
         22    1    1    2    0    0  0.27044379535E+02  0.25554010561E+02 -0.99752966102E+02  0.10646623956E+03  0.00000000000E+00 0. -1.
</event>
<event>
 6    1  0.4069520E-005  0.1945826E+03  0.7818608E-02  0.1275659E+00
          2   -1    0    0  502    0  0.00000000000E+00  0.00000000000E+00  0.18206281225E+03  0.18206281225E+03  0.00000000000E+00 0.  1.
          1   -1    0    0  501    0 -0.00000000000E+00 -0.00000000000E+00 -0.14190239188E+04  0.14190239188E+04  0.00000000000E+00 0. -1.
          2    1    1    2  501    0  0.25315554157E+02  0.95922097826E+01 -0.57595736706E+01  0.27677797233E+02  0.00000000000E+00 0.  1.
          1    1    1    2  502    0 -0.14475571348E+03  0.10166716969E+03 -0.13330177848E+04  0.13447032552E+04  0.00000000000E+00 0. -1.
         22    1    1    2    0    0  0.11167282230E+02  0.97579701740E+01  0.58912646295E+02  0.60750523190E+02  0.00000000000E+00 0.  1.
         22    1    1    2    0    0  0.10827287709E+03 -0.12101734965E+03  0.42903605681E+02  0.16795515536E+03  0.00000000000E+00 0.  1.
</event>
<event>
 6    1  0.4069520E-005  0.1336882E+03  0.7818608E-02  0.1240197E+00
          2   -1    0    0  502    0  0.00000000000E+00  0.00000000000E+00  0.47069702403E+03  0.47069702403E+03  0.00000000000E+00 0.  1.
          1   -1    0    0  501    0 -0.00000000000E+00 -0.00000000000E+00 -0.81774838271E+02  0.81774838271E+02  0.00000000000E+00 0.  1.
          2    1    1    2  501    0  0.31562871201E+02  0.10144577916E+03  0.24726906729E+02  0.10908199148E+03  0.00000000000E+00 0.  1.
          1    1    1    2  502    0 -0.72488770991E+02 -0.65428996859E+02  0.72208012904E+02  0.12144781874E+03  0.00000000000E+00 0.  1.
         22    1    1    2    0    0  0.69667926350E+02 -0.60140992293E+02  0.24559475141E+03  0.26227340856E+03  0.00000000000E+00 0.  1.
         22    1    1    2    0    0 -0.28742026560E+02  0.24124209989E+02  0.46392514716E+02  0.59668643525E+02  0.00000000000E+00 0.  1.
</event>
<event>
 6    1  0.4069520E-005  0.1360399E+03  0.7818608E-02  0.1242072E+00
          2   -1    0    0  502    0  0.00000000000E+00  0.00000000000E+00  0.15781142373E+03  0.15781142373E+03  0.00000000000E+00 0.  1.
          1   -1    0    0  501    0 -0.00000000000E+00 -0.00000000000E+00 -0.71364182161E+03  0.71364182161E+03  0.00000000000E+00 0. -1.
          2    1    1    2  501    0  0.54706805791E+02 -0.58240542115E+02  0.24660785030E+02  0.83623858223E+02  0.00000000000E+00 0.  1.
          1    1    1    2  502    0  0.27373800827E+02  0.85715400712E+02 -0.62613965683E+03  0.63257199175E+03  0.00000000000E+00 0. -1.
         22    1    1    2    0    0 -0.86226773291E+01  0.13445342620E+02  0.66691746061E+02  0.68577815619E+02  0.00000000000E+00 0.  1.
         22    1    1    2    0    0 -0.73457929289E+02 -0.40920201217E+02 -0.21043272147E+02  0.86679579751E+02  0.00000000000E+00 0.  1.
</event>
<event>
 6    1  0.4069520E-005  0.7980874E+02  0.7818608E-02  0.1333298E+00
          2   -1    0    0  502    0  0.00000000000E+00  0.00000000000E+00  0.30373525064E+02  0.30373525064E+02  0.00000000000E+00 0.  1.
          1   -1    0    0  501    0 -0.00000000000E+00 -0.00000000000E+00 -0.45498803636E+03  0.45498803636E+03  0.00000000000E+00 0.  1.
          2    1    1    2  501    0 -0.96143746643E+01  0.52123442019E+02 -0.11232176619E+03  0.12419930985E+03  0.00000000000E+00 0.  1.
          1    1    1    2  502    0  0.23186570277E+02 -0.49225541915E+02 -0.83401911431E+02  0.99582377197E+02  0.00000000000E+00 0.  1.
         22    1    1    2    0    0 -0.30897623326E+02 -0.57319462345E+02 -0.87348734384E+02  0.10894946209E+03  0.00000000000E+00 0. -1.
         22    1    1    2    0    0  0.17325427713E+02  0.54421562241E+02 -0.14154209930E+03  0.15263041229E+03  0.00000000000E+00 0.  1.
</event>
<event>
 6    1  0.4069520E-005  0.4191586E+03  0.7818608E-02  0.1137323E+00
          2   -1    0    0  502    0  0.00000000000E+00  0.00000000000E+00  0.29921236489E+03  0.29921236489E+03  0.00000000000E+00 0. -1.
          1   -1    0    0  501    0 -0.00000000000E+00 -0.00000000000E+00 -0.40865407346E+03  0.40865407346E+03  0.00000000000E+00 0. -1.
          2    1    1    2  501    0  0.19403967597E+02  0.16426000772E+02 -0.15294775312E+03  0.15504625969E+03  0.00000000000E+00 0. -1.
          1    1    1    2  502    0 -0.44941075561E+02  0.48747857915E+02 -0.23202679982E+03  0.24131408943E+03  0.00000000000E+00 0. -1.
         22    1    1    2    0    0  0.73970330004E+01 -0.88128596812E+02  0.26664505027E+03  0.28092872496E+03  0.00000000000E+00 0. -1.
         22    1    1    2    0    0  0.18140074964E+02  0.22954738126E+02  0.88877940959E+01  0.30577364275E+02  0.00000000000E+00 0. -1.
</event>
<event>
 6    1  0.4069520E-005  0.1318136E+03  0.7818608E-02  0.1271409E+00
          2   -1    0    0  502    0  0.00000000000E+00  0.00000000000E+00  0.33445181379E+02  0.33445181379E+02  0.00000000000E+00 0.  1.
          1   -1    0    0  501    0 -0.00000000000E+00 -0.00000000000E+00 -0.50412825997E+03  0.50412825997E+03  0.00000000000E+00 0.  1.
          2    1    1    2  501    0 -0.21303717085E+02 -0.31300053675E+02 -0.23149469859E+03  0.23457053778E+03  0.00000000000E+00 0.  1.
          1    1    1    2  502    0 -0.10316259955E+01  0.37280229147E+02 -0.12040887255E+03  0.12605227616E+03  0.00000000000E+00 0.  1.
         22    1    1    2    0    0 -0.50432310490E+02  0.73538110564E+01 -0.22967824477E+02  0.55901855422E+02  0.00000000000E+00 0.  1.
         22    1    1    2    0    0  0.72767653570E+02 -0.13333986529E+02 -0.95811682974E+02  0.12104877198E+03  0.00000000000E+00 0.  1.
</event>
<event>
 6    1  0.4069520E-005  0.2554557E+03  0.7818608E-02  0.1222117E+00
          2   -1    0    0  502    0  0.00000000000E+00  0.00000000000E+00  0.27762703534E+03  0.27762703534E+03  0.00000000000E+00 0. -1.
          1   -1    0    0  501    0 -0.00000000000E+00 -0.00000000000E+00 -0.59663845710E+03  0.59663845710E+03  0.00000000000E+00 0.  1.
          2    1    1    2  501    0  0.61568288387E+02 -0.36187289354E+02  0.16417184325E+03  0.17903231039E+03  0.00000000000E+00 0. -1.
          1    1    1    2  502    0 -0.20736953775E+02 -0.74030813515E+02 -0.51572417484E+03  0.52142305963E+03  0.00000000000E+00 0.  1.
         22    1    1    2    0    0 -0.78210766313E+01  0.17477678676E+02  0.66868792482E+02  0.69556264272E+02  0.00000000000E+00 0. -1.
         22    1    1    2    0    0 -0.33010257981E+02  0.92740424193E+02 -0.34327882658E+02  0.10425385815E+03  0.00000000000E+00 0. -1.
</event>
<event>
 6    1  0.4069520E-005  0.1604547E+03  0.7818608E-02  0.1237307E+00
          2   -1    0    0  502    0  0.00000000000E+00  0.00000000000E+00  0.10115490705E+03  0.10115490705E+03  0.00000000000E+00 0.  1.
          1   -1    0    0  501    0 -0.00000000000E+00 -0.00000000000E+00 -0.68551004846E+03  0.68551004846E+03  0.00000000000E+00 0. -1.
          2    1    1    2  501    0 -0.10956123066E+03  0.53249876072E+01 -0.50141366199E+02  0.12060752613E+03  0.00000000000E+00 0.  1.
          1    1    1    2  502    0  0.13994887735E+03  0.15673051183E+02 -0.51446499549E+03  0.53339063021E+03  0.00000000000E+00 0. -1.
         22    1    1    2    0    0 -0.16869291073E+02 -0.53878275504E+02  0.35701744574E+02  0.66798623625E+02  0.00000000000E+00 0.  1.
         22    1    1    2    0    0 -0.13518355623E+02  0.32880236713E+02 -0.55450524288E+02  0.65868175540E+02  0.00000000000E+00 0.  1.
</event>
<event>
 6    1  0.4069520E-005  0.8879513E+02  0.7818608E-02  0.1344323E+00
          2   -1    0    0  502    0  0.00000000000E+00  0.00000000000E+00  0.41769240710E+02  0.41769240710E+02  0.00000000000E+00 0.  1.
          1   -1    0    0  501    0 -0.00000000000E+00 -0.00000000000E+00 -0.58235483160E+03  0.58235483160E+03  0.00000000000E+00 0.  1.
          2    1    1    2  501    0 -0.96269254842E+01 -0.23888707377E+02  0.28205098049E+01  0.25909521609E+02  0.00000000000E+00 0.  1.
          1    1    1    2  502    0  0.23713169733E+02  0.33388615221E+02 -0.42344083734E+03  0.42541656853E+03  0.00000000000E+00 0.  1.
         22    1    1    2    0    0 -0.55276543678E+02 -0.11485088699E+02 -0.11881227405E+03  0.13154375701E+03  0.00000000000E+00 0.  1.
         22    1    1    2    0    0  0.41190299429E+02  0.19851808550E+01 -0.11529893046E+01  0.41254225170E+02  0.00000000000E+00 0.  1.
</event>
<event>
 6    1  0.4069520E-005  0.9716098E+02  0.7818608E-02  0.1395370E+00
          2   -1    0    0  502    0  0.00000000000E+00  0.00000000000E+00  0.64644893637E+02  0.64644893637E+02  0.00000000000E+00 0. -1.
          1   -1    0    0  501    0 -0.00000000000E+00 -0.00000000000E+00 -0.16282396883E+04  0.16282396883E+04  0.00000000000E+00 0.  1.
          2    1    1    2  501    0  0.45876556229E+02 -0.18278976069E+01 -0.31919767473E+02  0.55918433245E+02  0.00000000000E+00 0. -1.
          1    1    1    2  502    0 -0.93516466284E+02  0.25143412491E+01 -0.14953239037E+04  0.14982473856E+04  0.00000000000E+00 0.  1.
         22    1    1    2    0    0 -0.99729497973E+01  0.10791598068E+02  0.39867063645E+02  0.42488834771E+02  0.00000000000E+00 0. -1.
         22    1    1    2    0    0  0.57612859853E+02 -0.11478041711E+02 -0.76218187155E+02  0.96229928376E+02  0.00000000000E+00 0. -1.
</event>
<event>
 6    1  0.4069520E-005  0.1141142E+03  0.7818608E-02  0.1264128E+00
          2   -1    0    0  502    0  0.00000000000E+00  0.00000000000E+00  0.11709962554E+03  0.11709962554E+03  0.00000000000E+00 0.  1.
          1   -1    0    0  501    0 -0.00000000000E+00 -0.00000000000E+00 -0.45437527378E+03  0.45437527378E+03  0.00000000000E+00 0. -1.
          2    1    1    2  501    0 -0.35764884706E+02  0.28721658299E+02  0.44078717993E+02  0.63615988661E+02  0.00000000000E+00 0.  1.
          1    1    1    2  502    0  0.27793768435E+01  0.45704003188E+02 -0.35095596172E+03  0.35393031504E+03  0.00000000000E+00 0. -1.
         22    1    1    2    0    0  0.66992214450E+02 -0.87167607189E+02 -0.58463803087E+01  0.11009236442E+03  0.00000000000E+00 0.  1.
         22    1    1    2    0    0 -0.34006706588E+02  0.12741945703E+02 -0.24552024204E+02  0.43836231199E+02  0.00000000000E+00 0. -1.
</event>
<event>
 6    1  0.4069520E-005  0.3797777E+03  0.7818608E-02  0.1097532E+00
          2   -1    0    0  502    0  0.00000000000E+00  0.00000000000E+00  0.62864236240E+03  0.62864236240E+03  0.00000000000E+00 0.  1.
          1   -1    0    0  501    0 -0.00000000000E+00 -0.00000000000E+00 -0.46955649826E+03  0.46955649826E+03  0.00000000000E+00 0.  1.
          2    1    1    2  501    0  0.22478593432E+03 -0.14804328905E+03  0.30887961576E+03  0.40969763086E+03  0.00000000000E+00 0.  1.
          1    1    1    2  502    0 -0.28518159294E+03  0.16454456437E+02 -0.32331185248E+03  0.43142768113E+03  0.00000000000E+00 0.  1.
         22    1    1    2    0    0 -0.15088310414E+02  0.55836165887E+02  0.57550677780E+01  0.58124481393E+02  0.00000000000E+00 0.  1.
         22    1    1    2    0    0  0.75483969031E+02  0.75752666727E+02  0.16776303309E+03  0.19894906727E+03  0.00000000000E+00 0. -1.
</event>
<event>
 6    1  0.4069520E-005  0.1056426E+03  0.7818608E-02  0.1272125E+00
          2   -1    0    0  502    0  0.00000000000E+00  0.00000000000E+00  0.96802932937E+02  0.96802932937E+02  0.00000000000E+00 0. -1.
          1   -1    0    0  501    0 -0.00000000000E+00 -0.00000000000E+00 -0.41057025016E+03  0.41057025016E+03  0.00000000000E+00 0. -1.
          2    1    1    2  501    0  0.71382555753E+02  0.45245651677E+02 -0.29462766882E+03  0.30650954553E+03  0.00000000000E+00 0. -1.
          1    1    1    2  502    0  0.33373809154E+01 -0.51545872266E+02  0.65550507976E+01  0.52068068429E+02  0.00000000000E+00 0. -1.
         22    1    1    2    0    0 -0.99293355358E+02 -0.14442916061E+01  0.15200826074E+02  0.10046054703E+03  0.00000000000E+00 0. -1.
         22    1    1    2    0    0  0.24573418691E+02  0.77445121944E+01 -0.40895525270E+02  0.48335022110E+02  0.00000000000E+00 0. -1.
</event>
<event>
 6    1  0.4069520E-005  0.6834975E+02  0.7818608E-02  0.1473937E+00
          2   -1    0    0  502    0  0.00000000000E+00  0.00000000000E+00  0.20292723321E+03  0.20292723321E+03  0.00000000000E+00 0. -1.
          1   -1    0    0  501    0 -0.00000000000E+00 -0.00000000000E+00 -0.37560393549E+03  0.37560393549E+03  0.00000000000E+00 0. -1.
          2    1    1    2  501    0  0.10373733701E+02  0.22892271536E+02 -0.13295500145E+03  0.13530965545E+03  0.00000000000E+00 0. -1.
          1    1    1    2  502    0  0.14472176293E+02 -0.41548056263E+02  0.18226636336E+03  0.18750123221E+03  0.00000000000E+00 0. -1.
         22    1    1    2    0    0  0.69113359744E+01 -0.10911902174E+02  0.12067545133E+02  0.17676589590E+02  0.00000000000E+00 0. -1.
         22    1    1    2    0    0 -0.31757245969E+02  0.29567686901E+02 -0.23405560933E+03  0.23804369145E+03  0.00000000000E+00 0.  1.
</event>
<event>
 6    1  0.4069520E-005  0.8949135E+02  0.7818608E-02  0.1367994E+00
          2   -1    0    0  502    0  0.00000000000E+00  0.00000000000E+00  0.53733789057E+02  0.53733789057E+02  0.00000000000E+00 0. -1.
          1   -1    0    0  501    0 -0.00000000000E+00 -0.00000000000E+00 -0.55810914477E+03  0.55810914477E+03  0.00000000000E+00 0. -1.
          2    1    1    2  501    0 -0.47679729514E+02 -0.23101505736E+02 -0.40603959614E+03  0.40948161108E+03  0.00000000000E+00 0. -1.
          1    1    1    2  502    0  0.39820003893E+02 -0.52448001595E+01 -0.69177801688E+01  0.40755322612E+02  0.00000000000E+00 0. -1.
         22    1    1    2    0    0 -0.22094711272E+02  0.19331932166E+02  0.26536678373E+02  0.39573920283E+02  0.00000000000E+00 0. -1.
         22    1    1    2    0    0  0.29954436893E+02  0.90143737292E+01 -0.11795465777E+03  0.12203207985E+03  0.00000000000E+00 0. -1.
</event>
<event>
 6    1  0.4069520E-005  0.1001268E+03  0.7818608E-02  0.1359273E+00
          2   -1    0    0  502    0  0.00000000000E+00  0.00000000000E+00  0.25300797489E+03  0.25300797489E+03  0.00000000000E+00 0. -1.
          1   -1    0    0  501    0 -0.00000000000E+00 -0.00000000000E+00 -0.13749877273E+03  0.13749877273E+03  0.00000000000E+00 0. -1.
          2    1    1    2  501    0 -0.96313225325E+01  0.48645164965E+02 -0.62984573837E+02  0.80163401810E+02  0.00000000000E+00 0. -1.
          1    1    1    2  502    0  0.13635084003E+01 -0.11130730569E+03  0.50160436812E+02  0.12209522872E+03  0.00000000000E+00 0. -1.
         22    1    1    2    0    0  0.10308526582E+02  0.21951169219E+02  0.14291380538E+03  0.14495680501E+03  0.00000000000E+00 0. -1.
         22    1    1    2    0    0 -0.20407124498E+01  0.40710971502E+02 -0.14580466185E+02  0.43291312086E+02  0.00000000000E+00 0. -1.
</event>
<event>
 6    1  0.4069520E-005  0.2014764E+03  0.7818608E-02  0.1149576E+00
          2   -1    0    0  502    0  0.00000000000E+00  0.00000000000E+00  0.13777390391E+04  0.13777390391E+04  0.00000000000E+00 0. -1.
          1   -1    0    0  501    0 -0.00000000000E+00 -0.00000000000E+00 -0.42129076255E+03  0.42129076255E+03  0.00000000000E+00 0.  1.
          2    1    1    2  501    0 -0.18537941166E+03 -0.76035413438E+02  0.51550946761E+03  0.55307948936E+03  0.00000000000E+00 0. -1.
          1    1    1    2  502    0  0.10891688645E+02  0.55154231351E+02 -0.38664218809E+03  0.39070807482E+03  0.00000000000E+00 0.  1.
         22    1    1    2    0    0 -0.13758834783E+02 -0.24926040440E+01  0.13802765149E+02  0.19647771764E+02  0.00000000000E+00 0. -1.
         22    1    1    2    0    0  0.18824655780E+03  0.23373786131E+02  0.81377823185E+03  0.83559446566E+03  0.00000000000E+00 0. -1.
</event>
<event>
 6    1  0.4069520E-005  0.7419375E+02  0.7818608E-02  0.1355041E+00
          2   -1    0    0  502    0  0.00000000000E+00  0.00000000000E+00  0.33658809412E+03  0.33658809412E+03  0.00000000000E+00 0. -1.
          1   -1    0    0  501    0 -0.00000000000E+00 -0.00000000000E+00 -0.60538414928E+03  0.60538414928E+03  0.00000000000E+00 0. -1.
          2    1    1    2  501    0 -0.23996082790E+02 -0.37531118733E+01  0.40326048961E+02  0.47075344532E+02  0.00000000000E+00 0. -1.
          1    1    1    2  502    0  0.41576485166E+02 -0.13571333209E+02 -0.58722126413E+03  0.58884768680E+03  0.00000000000E+00 0. -1.
         22    1    1    2    0    0 -0.38198984690E+02 -0.34886325256E+02  0.21698711056E+03  0.22306865371E+03  0.00000000000E+00 0. -1.
         22    1    1    2    0    0  0.20618582314E+02  0.52210770338E+02  0.61112049450E+02  0.82980558349E+02  0.00000000000E+00 0. -1.
</event>
<event>
 6    1  0.4069520E-005  0.1063854E+03  0.7818608E-02  0.1366752E+00
          2   -1    0    0  502    0  0.00000000000E+00  0.00000000000E+00  0.12912626407E+03  0.12912626407E+03  0.00000000000E+00 0.  1.
          1   -1    0    0  501    0 -0.00000000000E+00 -0.00000000000E+00 -0.21871541413E+04  0.21871541413E+04  0.00000000000E+00 0.  1.
          2    1    1    2  501    0 -0.15131633503E+02 -0.44418571759E+02 -0.32017208188E+02  0.56807371614E+02  0.00000000000E+00 0.  1.
          1    1    1    2  502    0  0.70576914223E+02  0.74364130086E+02 -0.20968135942E+04  0.20993185498E+04  0.00000000000E+00 0.  1.
         22    1    1    2    0    0 -0.38617615117E+02 -0.24021597830E+02 -0.32132012050E+02  0.55685038907E+02  0.00000000000E+00 0. -1.
         22    1    1    2    0    0 -0.16827665603E+02 -0.59239604969E+01  0.10293493725E+03  0.10446944503E+03  0.00000000000E+00 0.  1.
</event>
<event>
 6    1  0.4069520E-005  0.1142628E+03  0.7818608E-02  0.1332673E+00
          2   -1    0    0  502    0  0.00000000000E+00  0.00000000000E+00  0.18408541136E+03  0.18408541136E+03  0.00000000000E+00 0.  1.
          1   -1    0    0  501    0 -0.00000000000E+00 -0.00000000000E+00 -0.14774229502E+03  0.14774229502E+03  0.00000000000E+00 0.  1.
          2    1    1    2  501    0 -0.31646613165E+02  0.66197526007E+02 -0.69499016412E+02  0.10106301923E+03  0.00000000000E+00 0.  1.
          1    1    1    2  502    0  0.18037504536E+02 -0.77475068021E+02  0.26171216888E+02  0.83741688114E+02  0.00000000000E+00 0.  1.
         22    1    1    2    0    0  0.30808782646E+02  0.30459481694E+02 -0.17328097861E+02  0.46660733907E+02  0.00000000000E+00 0.  1.
         22    1    1    2    0    0 -0.17199674017E+02 -0.19181939680E+02  0.96999013730E+02  0.10036226512E+03  0.00000000000E+00 0.  1.
</event>
<event>
 6    1  0.4069520E-005  0.1198686E+03  0.7818608E-02  0.1378230E+00
          2   -1    0    0  502    0  0.00000000000E+00  0.00000000000E+00  0.73720498905E+02  0.73720498905E+02  0.00000000000E+00 0. -1.
          1   -1    0    0  501    0 -0.00000000000E+00 -0.00000000000E+00 -0.36851044291E+03  0.36851044291E+03  0.00000000000E+00 0. -1.
          2    1    1    2  501    0  0.15938075281E+02 -0.22138355851E+02 -0.16271500570E+03  0.16498576339E+03  0.00000000000E+00 0. -1.
          1    1    1    2  502    0  0.23254981521E+02 -0.38165659162E+02 -0.12688083102E+03  0.13452195726E+03  0.00000000000E+00 0. -1.
         22    1    1    2    0    0 -0.13466186359E+01  0.10232272771E+02  0.54879720658E+02  0.55841709567E+02  0.00000000000E+00 0. -1.
         22    1    1    2    0    0 -0.37846438166E+02  0.50071742242E+02 -0.60073827946E+02  0.86881511595E+02  0.00000000000E+00 0. -1.
</event>
<event>
 6    1  0.4069520E-005  0.6004698E+02  0.7818608E-02  0.1505388E+00
          2   -1    0    0  502    0  0.00000000000E+00  0.00000000000E+00  0.92757629026E+02  0.92757629026E+02  0.00000000000E+00 0.  1.
          1   -1    0    0  501    0 -0.00000000000E+00 -0.00000000000E+00 -0.24751771818E+03  0.24751771818E+03  0.00000000000E+00 0.  1.
          2    1    1    2  501    0  0.24885372894E+02  0.18019934763E+02 -0.12042146871E+02  0.33000199003E+02  0.00000000000E+00 0.  1.
          1    1    1    2  502    0 -0.21935340245E+02 -0.44399290584E+02 -0.17078500574E+03  0.17782006170E+03  0.00000000000E+00 0.  1.
         22    1    1    2    0    0  0.93298860007E+01  0.26810231899E+02 -0.46175034244E+02  0.54203035844E+02  0.00000000000E+00 0. -1.
         22    1    1    2    0    0 -0.12279918650E+02 -0.43087607816E+00  0.74242097707E+02  0.75252050658E+02  0.00000000000E+00 0.  1.
</event>
<event>
 6    1  0.4069520E-005  0.1498921E+03  0.7818608E-02  0.1296246E+00
          2   -1    0    0  502    0  0.00000000000E+00  0.00000000000E+00  0.28611011487E+03  0.28611011487E+03  0.00000000000E+00 0. -1.
          1   -1    0    0  501    0 -0.00000000000E+00 -0.00000000000E+00 -0.63594571818E+03  0.63594571818E+03  0.00000000000E+00 0.  1.
          2    1    1    2  501    0 -0.28790036015E+02 -0.29667907836E+02  0.30548267885E+02  0.51402797588E+02  0.00000000000E+00 0. -1.
          1    1    1    2  502    0  0.39485763766E+02 -0.67558046732E+02 -0.59704294215E+03  0.60214905961E+03  0.00000000000E+00 0.  1.
         22    1    1    2    0    0  0.54643393264E+01  0.11216441570E+03  0.10185144907E+03  0.15160617676E+03  0.00000000000E+00 0. -1.
         22    1    1    2    0    0 -0.16160067077E+02 -0.14938461134E+02  0.11480762188E+03  0.11689779909E+03  0.00000000000E+00 0.  1.
</event>
<event>
 6    1  0.4069520E-005  0.2917343E+03  0.7818608E-02  0.1164902E+00
          2   -1    0    0  502    0  0.00000000000E+00  0.00000000000E+00  0.31714540649E+03  0.31714540649E+03  0.00000000000E+00 0.  1.
          1   -1    0    0  501    0 -0.00000000000E+00 -0.00000000000E+00 -0.28768053964E+03  0.28768053964E+03  0.00000000000E+00 0.  1.
          2    1    1    2  501    0 -0.59747099855E+02 -0.21963439257E+02 -0.76917559825E+02  0.99841973211E+02  0.00000000000E+00 0.  1.
          1    1    1    2  502    0  0.19245414394E+02  0.17001526461E+02 -0.18508162136E+03  0.18685460776E+03  0.00000000000E+00 0.  1.
         22    1    1    2    0    0 -0.28078533054E+02 -0.37126460750E+02  0.93802729412E+02  0.10471738228E+03  0.00000000000E+00 0. -1.
         22    1    1    2    0    0  0.68580218515E+02  0.42088373546E+02  0.19766131862E+03  0.21341198288E+03  0.00000000000E+00 0.  1.
</event>
<event>
 6    1  0.4069520E-005  0.9739926E+02  0.7818608E-02  0.1286593E+00
          2   -1    0    0  502    0  0.00000000000E+00  0.00000000000E+00  0.36884863556E+03  0.36884863556E+03  0.00000000000E+00 0. -1.
          1   -1    0    0  501    0 -0.00000000000E+00 -0.00000000000E+00 -0.40896875625E+03  0.40896875625E+03  0.00000000000E+00 0.  1.
          2    1    1    2  501    0 -0.32195420637E+02 -0.48181318210E+02  0.11218329003E+03  0.12626589047E+03  0.00000000000E+00 0. -1.
          1    1    1    2  502    0 -0.43428000601E+02 -0.97185429593E+01 -0.37634746054E+03  0.37896946100E+03  0.00000000000E+00 0.  1.
         22    1    1    2    0    0 -0.21841975645E+02 -0.17210566490E+02  0.70699608502E+02  0.75971772003E+02  0.00000000000E+00 0. -1.
         22    1    1    2    0    0  0.97465396882E+02  0.75110427659E+02  0.15334444132E+03  0.19661026834E+03  0.00000000000E+00 0. -1.
</event>
<event>
 6    1  0.4069520E-005  0.9704919E+02  0.7818608E-02  0.1328754E+00
          2   -1    0    0  502    0  0.00000000000E+00  0.00000000000E+00  0.58291727829E+02  0.58291727829E+02  0.00000000000E+00 0. -1.
          1   -1    0    0  501    0 -0.00000000000E+00 -0.00000000000E+00 -0.12917090332E+04  0.12917090332E+04  0.00000000000E+00 0.  1.
          2    1    1    2  501    0 -0.74791169018E+02  0.19043401381E+01 -0.12352200265E+03  0.14441270932E+03  0.00000000000E+00 0. -1.
          1    1    1    2  502    0  0.82102447365E+02 -0.39182946540E+02 -0.10681411978E+04  0.10720082712E+04  0.00000000000E+00 0.  1.
         22    1    1    2    0    0 -0.48317111135E+02  0.18631032852E+02 -0.64824386426E+02  0.82969028493E+02  0.00000000000E+00 0. -1.
         22    1    1    2    0    0  0.41005832788E+02  0.18647573550E+02  0.23070281541E+02  0.50610751944E+02  0.00000000000E+00 0. -1.
</event>
<event>
 6    1  0.4069520E-005  0.2276383E+03  0.7818608E-02  0.1203744E+00
          2   -1    0    0  502    0  0.00000000000E+00  0.00000000000E+00  0.10647979762E+04  0.10647979762E+04  0.00000000000E+00 0.  1.
          1   -1    0    0  501    0 -0.00000000000E+00 -0.00000000000E+00 -0.12567703600E+03  0.12567703600E+03  0.00000000000E+00 0. -1.
          2    1    1    2  501    0 -0.95859781031E+01 -0.33791073080E+02  0.88173416065E+02  0.94911953392E+02  0.00000000000E+00 0.  1.
          1    1    1    2  502    0 -0.16696297160E+03 -0.24352512369E+02 -0.42969332226E+02  0.17411502593E+03  0.00000000000E+00 0. -1.
         22    1    1    2    0    0  0.19206755305E+02 -0.35068551369E+02  0.13421402877E+03  0.14004323712E+03  0.00000000000E+00 0.  1.
         22    1    1    2    0    0  0.15734219440E+03  0.93212136817E+02  0.75970282756E+03  0.78140479573E+03  0.00000000000E+00 0.  1.
</event>
<event>
 6    1  0.4069520E-005  0.2600904E+03  0.7818608E-02  0.1231997E+00
          2   -1    0    0  502    0  0.00000000000E+00  0.00000000000E+00  0.18574189736E+03  0.18574189736E+03  0.00000000000E+00 0. -1.
          1   -1    0    0  501    0 -0.00000000000E+00 -0.00000000000E+00 -0.24899970716E+03  0.24899970716E+03  0.00000000000E+00 0. -1.
          2    1    1    2  501    0  0.37966114740E+02  0.80071891180E+02 -0.26712837766E+02  0.92555439209E+02  0.00000000000E+00 0. -1.
          1    1    1    2  502    0  0.52727467901E+02  0.42206697725E+02 -0.11340604232E+03  0.13199440003E+03  0.00000000000E+00 0. -1.
         22    1    1    2    0    0 -0.10138410803E+03 -0.13248369401E+03  0.41563527006E+02  0.17192496421E+03  0.00000000000E+00 0. -1.
         22    1    1    2    0    0  0.10690525391E+02  0.10205105105E+02  0.35297543276E+02  0.38266801077E+02  0.00000000000E+00 0.  1.
</event>
<event>
 6    1  0.4069520E-005  0.2618302E+03  0.7818608E-02  0.1238568E+00
          2   -1    0    0  502    0  0.00000000000E+00  0.00000000000E+00  0.18563960392E+03  0.18563960392E+03  0.00000000000E+00 0.  1.
          1   -1    0    0  501    0 -0.00000000000E+00 -0.00000000000E+00 -0.29352773065E+03  0.29352773065E+03  0.00000000000E+00 0. -1.
          2    1    1    2  501    0  0.49170153771E+02  0.90017363312E+02  0.31885216765E+02  0.10741274025E+03  0.00000000000E+00 0.  1.
          1    1    1    2  502    0 -0.55019817143E+01  0.60184188518E+02 -0.16205909330E+03  0.17296114613E+03  0.00000000000E+00 0. -1.
         22    1    1    2    0    0  0.93494559777E+01 -0.85412591200E+01  0.44181409357E+02  0.45960443505E+02  0.00000000000E+00 0.  1.
         22    1    1    2    0    0 -0.53017628034E+02 -0.14166029271E+03 -0.21895659561E+02  0.15283300468E+03  0.00000000000E+00 0. -1.
</event>
<event>
 6    1  0.4069520E-005  0.1218239E+03  0.7818608E-02  0.1326121E+00
          2   -1    0    0  502    0  0.00000000000E+00  0.00000000000E+00  0.24321569797E+02  0.24321569797E+02  0.00000000000E+00 0. -1.
          1   -1    0    0  501    0 -0.00000000000E+00 -0.00000000000E+00 -0.18755670647E+04  0.18755670647E+04  0.00000000000E+00 0. -1.
          2    1    1    2  501    0  0.66026144716E+02 -0.38375651634E+02 -0.19425014401E+03  0.20872292848E+03  0.00000000000E+00 0. -1.
          1    1    1    2  502    0 -0.92823066657E+02  0.24348176284E+02 -0.14059884933E+04  0.14092595924E+04  0.00000000000E+00 0. -1.
         22    1    1    2    0    0 -0.21707237205E+02 -0.98997159537E+01  0.12748368947E+01  0.23892126991E+02  0.00000000000E+00 0. -1.
         22    1    1    2    0    0  0.48504159145E+02  0.23927191304E+02 -0.25228169446E+03  0.25801398663E+03  0.00000000000E+00 0. -1.
</event>
<event>
 6    1  0.4069520E-005  0.2459676E+03  0.7818608E-02  0.1179015E+00
          2   -1    0    0  502    0  0.00000000000E+00  0.00000000000E+00  0.10771634263E+03  0.10771634263E+03  0.00000000000E+00 0.  1.
          1   -1    0    0  501    0 -0.00000000000E+00 -0.00000000000E+00 -0.62580771836E+03  0.62580771836E+03  0.00000000000E+00 0.  1.
          2    1    1    2  501    0  0.55475721581E+01 -0.14758878849E+03 -0.24489858351E+03  0.28598696168E+03  0.00000000000E+00 0.  1.
          1    1    1    2  502    0  0.82547319897E+01  0.15809738201E+03 -0.27941367776E+03  0.32114626904E+03  0.00000000000E+00 0.  1.
         22    1    1    2    0    0 -0.60491464042E+00  0.54664581583E+02 -0.14827524905E+02  0.56643074565E+02  0.00000000000E+00 0.  1.
         22    1    1    2    0    0 -0.13197389507E+02 -0.65173175105E+02  0.21048410449E+02  0.69747755703E+02  0.00000000000E+00 0. -1.
</event>
<event>
 6    1  0.4069520E-005  0.7352202E+02  0.7818608E-02  0.1374145E+00
          2   -1    0    0  502    0  0.00000000000E+00  0.00000000000E+00  0.37215857348E+03  0.37215857348E+03  0.00000000000E+00 0. -1.
          1   -1    0    0  501    0 -0.00000000000E+00 -0.00000000000E+00 -0.64257185718E+02  0.64257185718E+02  0.00000000000E+00 0. -1.
          2    1    1    2  501    0 -0.21767598158E+02 -0.50893452076E+02 -0.17359891555E+02  0.58011530135E+02  0.00000000000E+00 0. -1.
          1    1    1    2  502    0  0.45804905611E+02  0.32942568356E+02  0.14314538090E+03  0.15386325832E+03  0.00000000000E+00 0. -1.
         22    1    1    2    0    0  0.14046333223E+01 -0.22546497695E+02 -0.11328901111E+02  0.25271754064E+02  0.00000000000E+00 0.  1.
         22    1    1    2    0    0 -0.25441940775E+02  0.40497381415E+02  0.19344479953E+03  0.19926921668E+03  0.00000000000E+00 0. -1.
</event>
<event>
 6    1  0.4069520E-005  0.1561421E+03  0.7818608E-02  0.1261562E+00
          2   -1    0    0  502    0  0.00000000000E+00  0.00000000000E+00  0.11184044946E+03  0.11184044946E+03  0.00000000000E+00 0.  1.
          1   -1    0    0  501    0 -0.00000000000E+00 -0.00000000000E+00 -0.41371213612E+03  0.41371213612E+03  0.00000000000E+00 0. -1.
          2    1    1    2  501    0  0.32566558634E+02  0.59090677322E+02 -0.38472260191E+02  0.77668550211E+02  0.00000000000E+00 0.  1.
          1    1    1    2  502    0  0.10665957083E+02 -0.49768375206E+02 -0.30707012257E+03  0.31125988175E+03  0.00000000000E+00 0. -1.
         22    1    1    2    0    0 -0.68400670346E+02  0.18771983514E+02  0.62436100317E+02  0.94495003527E+02  0.00000000000E+00 0.  1.
         22    1    1    2    0    0  0.25168154629E+02 -0.28094285629E+02 -0.18765404213E+02  0.42129150095E+02  0.00000000000E+00 0.  1.
</event>
<event>
 6    1  0.4069520E-005  0.1370045E+03  0.7818608E-02  0.1337495E+00
          2   -1    0    0  502    0  0.00000000000E+00  0.00000000000E+00  0.54199642697E+02  0.54199642697E+02  0.00000000000E+00 0.  1.
          1   -1    0    0  501    0 -0.00000000000E+00 -0.00000000000E+00 -0.53162382103E+03  0.53162382103E+03  0.00000000000E+00 0.  1.
          2    1    1    2  501    0  0.62134350729E+01  0.22169111041E+02  0.77909924488E+01  0.24305880422E+02  0.00000000000E+00 0.  1.
          1    1    1    2  502    0 -0.39589414479E+02  0.56543155938E+02 -0.36177257427E+03  0.36829858229E+03  0.00000000000E+00 0.  1.
         22    1    1    2    0    0  0.22012695643E+02 -0.86435191429E+02 -0.14346776347E+03  0.16893371553E+03  0.00000000000E+00 0.  1.
         22    1    1    2    0    0  0.11363283764E+02  0.77229244503E+01  0.20025166954E+02  0.24285285493E+02  0.00000000000E+00 0.  1.
</event>
<event>
 6    1  0.4069520E-005  0.1077782E+03  0.7818608E-02  0.1284646E+00
          2   -1    0    0  502    0  0.00000000000E+00  0.00000000000E+00  0.19831097375E+03  0.19831097375E+03  0.00000000000E+00 0. -1.
          1   -1    0    0  501    0 -0.00000000000E+00 -0.00000000000E+00 -0.71381212483E+03  0.71381212483E+03  0.00000000000E+00 0. -1.
          2    1    1    2  501    0 -0.70752942671E+02 -0.11508012549E+03 -0.40746102090E+02  0.14110159111E+03  0.00000000000E+00 0. -1.
          1    1    1    2  502    0  0.23940160596E+02  0.98371703385E+02 -0.58539482739E+03  0.59408520201E+03  0.00000000000E+00 0. -1.
         22    1    1    2    0    0  0.65596308521E+02  0.33273244686E+02  0.12718398081E+03  0.14692089531E+03  0.00000000000E+00 0. -1.
         22    1    1    2    0    0 -0.18783526446E+02 -0.16564822584E+02 -0.16544202414E+02  0.30015410150E+02  0.00000000000E+00 0.  1.
</event>
<event>
 6    1  0.4069520E-005  0.7840690E+02  0.7818608E-02  0.1340478E+00
          2   -1    0    0  502    0  0.00000000000E+00  0.00000000000E+00  0.63726063065E+03  0.63726063065E+03  0.00000000000E+00 0. -1.
          1   -1    0    0  501    0 -0.00000000000E+00 -0.00000000000E+00 -0.21961749880E+03  0.21961749880E+03  0.00000000000E+00 0.  1.
          2    1    1    2  501    0  0.55128804560E+01  0.25790517324E+02  0.84635293179E+02  0.88649170816E+02  0.00000000000E+00 0. -1.
          1    1    1    2  502    0 -0.47126595105E+02 -0.85585970425E+00 -0.20652751318E+03  0.21183782043E+03  0.00000000000E+00 0.  1.
         22    1    1    2    0    0  0.62465832906E+02  0.34475520320E+02  0.24369473900E+03  0.25392453131E+03  0.00000000000E+00 0. -1.
         22    1    1    2    0    0 -0.20852118257E+02 -0.59410177940E+02  0.29584061285E+03  0.30246660690E+03  0.00000000000E+00 0. -1.
</event>
<event>
 6    1  0.4069520E-005  0.1531971E+03  0.7818608E-02  0.1197446E+00
          2   -1    0    0  502    0  0.00000000000E+00  0.00000000000E+00  0.21842412981E+03  0.21842412981E+03  0.00000000000E+00 0. -1.
          1   -1    0    0  501    0 -0.00000000000E+00 -0.00000000000E+00 -0.67591216586E+03  0.67591216586E+03  0.00000000000E+00 0. -1.
          2    1    1    2  501    0  0.10892367519E+03  0.45426395216E+02  0.51545820152E+02  0.12878235894E+03  0.00000000000E+00 0. -1.
          1    1    1    2  502    0  0.72527506613E+02 -0.77966561639E+02 -0.53358456669E+03  0.54410616037E+03  0.00000000000E+00 0. -1.
         22    1    1    2    0    0 -0.19845643352E+03  0.36976417561E+02  0.17925474361E+02  0.20266606546E+03  0.00000000000E+00 0.  1.
         22    1    1    2    0    0  0.17005251717E+02 -0.44362511378E+01  0.66252361310E+01  0.18781710889E+02  0.00000000000E+00 0. -1.
</event>
<event>
 6    1  0.4069520E-005  0.8656071E+02  0.7818608E-02  0.1339633E+00
          2   -1    0    0  502    0  0.00000000000E+00  0.00000000000E+00  0.69868987502E+03  0.69868987502E+03  0.00000000000E+00 0. -1.
          1   -1    0    0  501    0 -0.00000000000E+00 -0.00000000000E+00 -0.32573351965E+02  0.32573351965E+02  0.00000000000E+00 0. -1.
          2    1    1    2  501    0  0.47872587875E+02 -0.17618800096E+02  0.29188815265E+02  0.58772389123E+02  0.00000000000E+00 0. -1.
          1    1    1    2  502    0 -0.43104559375E+02  0.31984587721E+02  0.41299819344E+03  0.41647151724E+03  0.00000000000E+00 0. -1.
         22    1    1    2    0    0  0.54484074708E+01  0.37121299288E+02  0.14683633127E+02  0.40290012243E+02  0.00000000000E+00 0. -1.
         22    1    1    2    0    0 -0.10216435970E+02 -0.51487086913E+02  0.20924588123E+03  0.21572930838E+03  0.00000000000E+00 0.  1.
</event>
<event>
 6    1  0.4069520E-005  0.8775345E+02  0.7818608E-02  0.1339293E+00
          2   -1    0    0  502    0  0.00000000000E+00  0.00000000000E+00  0.48348275069E+03  0.48348275069E+03  0.00000000000E+00 0. -1.
          1   -1    0    0  501    0 -0.00000000000E+00 -0.00000000000E+00 -0.92654328720E+03  0.92654328720E+03  0.00000000000E+00 0.  1.
          2    1    1    2  501    0 -0.10739639007E+02 -0.21641828749E+02  0.88916904381E+02  0.92140786204E+02  0.00000000000E+00 0. -1.
          1    1    1    2  502    0  0.24535641085E+02  0.81065029342E+02 -0.91014716281E+03  0.91407953409E+03  0.00000000000E+00 0.  1.
         22    1    1    2    0    0 -0.64276235228E+02 -0.63888626350E+02  0.23010127015E+03  0.24730504548E+03  0.00000000000E+00 0. -1.
         22    1    1    2    0    0  0.50480233150E+02  0.44654257575E+01  0.14806845177E+03  0.15650067212E+03  0.00000000000E+00 0.  1.
</event>
<event>
 6    1  0.4069520E-005  0.1557392E+03  0.7818608E-02  0.1263197E+00
          2   -1    0    0  502    0  0.00000000000E+00  0.00000000000E+00  0.86465321468E+02  0.86465321468E+02  0.00000000000E+00 0.  1.
          1   -1    0    0  501    0 -0.00000000000E+00 -0.00000000000E+00 -0.41824966312E+03  0.41824966312E+03  0.00000000000E+00 0.  1.
          2    1    1    2  501    0 -0.89506638840E+02  0.40317260156E+02 -0.19189299462E+03  0.21554545054E+03  0.00000000000E+00 0.  1.
          1    1    1    2  502    0  0.26056929536E+01 -0.55671396391E+02  0.28545810198E+02  0.62617547794E+02  0.00000000000E+00 0.  1.
         22    1    1    2    0    0  0.35542419674E+02 -0.95957164178E+01  0.10859515336E+02  0.38383205223E+02  0.00000000000E+00 0.  1.
         22    1    1    2    0    0  0.51358526212E+02  0.24949852653E+02 -0.17929667256E+03  0.18816878103E+03  0.00000000000E+00 0.  1.
</event>
<event>
 6    1  0.4069520E-005  0.5929229E+02  0.7818608E-02  0.1456478E+00
          2   -1    0    0  502    0  0.00000000000E+00  0.00000000000E+00  0.26199030959E+02  0.26199030959E+02  0.00000000000E+00 0. -1.
          1   -1    0    0  501    0 -0.00000000000E+00 -0.00000000000E+00 -0.11068624805E+04  0.11068624805E+04  0.00000000000E+00 0.  1.
          2    1    1    2  501    0 -0.24339298086E+02 -0.18389638162E+01 -0.72050903058E+02  0.76073095446E+02  0.00000000000E+00 0. -1.
          1    1    1    2  502    0  0.37138374932E+02 -0.37623653936E+02 -0.83840792883E+03  0.84007300478E+03  0.00000000000E+00 0.  1.
         22    1    1    2    0    0 -0.33250043029E+02  0.24311992889E+02 -0.18359322147E+03  0.18815713999E+03  0.00000000000E+00 0.  1.
         22    1    1    2    0    0  0.20450966183E+02  0.15150624863E+02  0.13388603834E+02  0.28758271230E+02  0.00000000000E+00 0. -1.
</event>
<event>
 6    1  0.4069520E-005  0.8507743E+02  0.7818608E-02  0.1358018E+00
          2   -1    0    0  502    0  0.00000000000E+00  0.00000000000E+00  0.27586492083E+02  0.27586492083E+02  0.00000000000E+00 0. -1.
          1   -1    0    0  501    0 -0.00000000000E+00 -0.00000000000E+00 -0.42097061763E+03  0.42097061763E+03  0.00000000000E+00 0. -1.
          2    1    1    2  501    0 -0.18915082450E+02 -0.84401800493E+01 -0.21119676584E+03  0.21221001598E+03  0.00000000000E+00 0. -1.
          1    1    1    2  502    0  0.11587037564E+02  0.22515303862E+02 -0.33993249219E+02  0.42387962206E+02  0.00000000000E+00 0. -1.
         22    1    1    2    0    0  0.45701392602E+02 -0.27227859836E+02 -0.14359753890E+03  0.15313466888E+03  0.00000000000E+00 0. -1.
         22    1    1    2    0    0 -0.38373347716E+02  0.13152736023E+02 -0.45965715989E+01  0.40824462646E+02  0.00000000000E+00 0. -1.
</event>
<event>
 6    1  0.4069520E-005  0.1237589E+03  0.7818608E-02  0.1253606E+00
          2   -1    0    0  502    0  0.00000000000E+00  0.00000000000E+00  0.16058902265E+03  0.16058902265E+03  0.00000000000E+00 0. -1.
          1   -1    0    0  501    0 -0.00000000000E+00 -0.00000000000E+00 -0.28535930240E+03  0.28535930240E+03  0.00000000000E+00 0. -1.
          2    1    1    2  501    0  0.41967461101E+02  0.16891125135E+01 -0.13483972537E+03  0.14122985672E+03  0.00000000000E+00 0. -1.
          1    1    1    2  502    0  0.20595318528E+02  0.18368835542E+01 -0.11701538357E+03  0.11882820068E+03  0.00000000000E+00 0. -1.
         22    1    1    2    0    0  0.26793932775E+02 -0.17120566220E+02  0.23945738254E+01  0.31886715181E+02  0.00000000000E+00 0. -1.
         22    1    1    2    0    0 -0.89356712404E+02  0.13594570152E+02  0.12469025536E+03  0.15400355247E+03  0.00000000000E+00 0. -1.
</event>
<event>
 6    1  0.4069520E-005  0.1304861E+03  0.7818608E-02  0.1306089E+00
          2   -1    0    0  502    0  0.00000000000E+00  0.00000000000E+00  0.66161696467E+02  0.66161696467E+02  0.00000000000E+00 0. -1.
          1   -1    0    0  501    0 -0.00000000000E+00 -0.00000000000E+00 -0.17215076164E+04  0.17215076164E+04  0.00000000000E+00 0. -1.
          2    1    1    2  501    0 -0.14589460864E+02 -0.16026568010E+02 -0.45045424763E+02  0.49987933970E+02  0.00000000000E+00 0. -1.
          1    1    1    2  502    0  0.33006816977E+02 -0.74760404707E+02 -0.15811861802E+04  0.15832966572E+04  0.00000000000E+00 0. -1.
         22    1    1    2    0    0  0.23819834943E+02 -0.14395522081E+02  0.16328791726E+02  0.32268328620E+02  0.00000000000E+00 0. -1.
         22    1    1    2    0    0 -0.42237191057E+02  0.10518249480E+03 -0.45443106666E+02  0.12211639310E+03  0.00000000000E+00 0. -1.
</event>
<event>
 6    1  0.4069520E-005  0.2091912E+03  0.7818608E-02  0.1226252E+00
          2   -1    0    0  502    0  0.00000000000E+00  0.00000000000E+00  0.35190187412E+03  0.35190187412E+03  0.00000000000E+00 0. -1.
          1   -1    0    0  501    0 -0.00000000000E+00 -0.00000000000E+00 -0.18938897833E+03  0.18938897833E+03  0.00000000000E+00 0. -1.
          2    1    1    2  501    0 -0.98192966200E+02 -0.14327016812E+03  0.84485539562E+01  0.17389530686E+03  0.00000000000E+00 0. -1.
          1    1    1    2  502    0  0.10810532753E+03  0.15155099856E+03  0.22467615490E+02  0.18750802849E+03  0.00000000000E+00 0. -1.
         22    1    1    2    0    0 -0.38442828841E+02  0.61856271293E+01 -0.53060844407E+01  0.39297170437E+02  0.00000000000E+00 0.  1.
         22    1    1    2    0    0  0.28530467513E+02 -0.14466457563E+02  0.13690281079E+03  0.14059034666E+03  0.00000000000E+00 0. -1.
</event>
<event>
 6    1  0.4069520E-005  0.6435916E+02  0.7818608E-02  0.1391379E+00
          2   -1    0    0  502    0  0.00000000000E+00  0.00000000000E+00  0.85942466843E+02  0.85942466843E+02  0.00000000000E+00 0. -1.
          1   -1    0    0  501    0 -0.00000000000E+00 -0.00000000000E+00 -0.29022258885E+03  0.29022258885E+03  0.00000000000E+00 0.  1.
          2    1    1    2  501    0  0.99939860147E+01 -0.39779175311E+02 -0.98042580716E+02  0.10627610352E+03  0.00000000000E+00 0. -1.
          1    1    1    2  502    0  0.15412332428E+02  0.15930766359E+02 -0.13590587085E+03  0.13770161597E+03  0.00000000000E+00 0.  1.
         22    1    1    2    0    0 -0.14999555957E+02 -0.28226347711E+02 -0.35731602011E+02  0.47942264926E+02  0.00000000000E+00 0. -1.
         22    1    1    2    0    0 -0.10406762486E+02  0.52074756662E+02  0.65399931570E+02  0.84245071287E+02  0.00000000000E+00 0. -1.
</event>
<event>
 6    1  0.4069520E-005  0.4393480E+02  0.7818608E-02  0.1580269E+00
          2   -1    0    0  502    0  0.00000000000E+00  0.00000000000E+00  0.58271798391E+02  0.58271798391E+02  0.00000000000E+00 0.  1.
          1   -1    0    0  501    0 -0.00000000000E+00 -0.00000000000E+00 -0.10319686527E+04  0.10319686527E+04  0.00000000000E+00 0.  1.
          2    1    1    2  501    0  0.25481649998E+02  0.25935398264E+02 -0.10219732475E+03  0.10847235849E+03  0.00000000000E+00 0.  1.
          1    1    1    2  502    0 -0.29540944527E+02 -0.27566467670E+02 -0.85892536538E+03  0.85987520073E+03  0.00000000000E+00 0.  1.
         22    1    1    2    0    0  0.15456890933E+02  0.49504871816E+01 -0.65587929614E+02  0.67566258678E+02  0.00000000000E+00 0. -1.
         22    1    1    2    0    0 -0.11397596404E+02 -0.33194177760E+01  0.53013765483E+02  0.54326633144E+02  0.00000000000E+00 0.  1.
</event>
<event>
 6    1  0.4069520E-005  0.8352093E+02  0.7818608E-02  0.1356025E+00
          2   -1    0    0  502    0  0.00000000000E+00  0.00000000000E+00  0.11415647533E+03  0.11415647533E+03  0.00000000000E+00 0. -1.
          1   -1    0    0  501    0 -0.00000000000E+00 -0.00000000000E+00 -0.96304007850E+02  0.96304007850E+02  0.00000000000E+00 0. -1.
          2    1    1    2  501    0  0.17991802688E+02  0.23711521143E+02 -0.67381505031E+01  0.30517927044E+02  0.00000000000E+00 0. -1.
          1    1    1    2  502    0 -0.24493760341E+02  0.13201739541E+02 -0.29247034395E+02  0.40368542746E+02  0.00000000000E+00 0. -1.
         22    1    1    2    0    0 -0.38178019735E+02  0.15386655252E+02  0.57471656033E+02  0.70691594959E+02  0.00000000000E+00 0. -1.
         22    1    1    2    0    0  0.44679977388E+02 -0.52299915936E+02 -0.36340036545E+01  0.68882418431E+02  0.00000000000E+00 0. -1.
</event>
<event>
 6    1  0.4069520E-005  0.1330723E+03  0.7818608E-02  0.1269264E+00
          2   -1    0    0  502    0  0.00000000000E+00  0.00000000000E+00  0.12316124118E+03  0.12316124118E+03  0.00000000000E+00 0. -1.
          1   -1    0    0  501    0 -0.00000000000E+00 -0.00000000000E+00 -0.20530019295E+03  0.20530019295E+03  0.00000000000E+00 0. -1.
          2    1    1    2  501    0  0.54698190016E+02 -0.22163719367E+02 -0.45340643709E+02  0.74423762463E+02  0.00000000000E+00 0. -1.
          1    1    1    2  502    0 -0.10896060923E+03 -0.83879075873E+01 -0.10847896699E+02  0.10982007203E+03  0.00000000000E+00 0. -1.
         22    1    1    2    0    0 -0.34506991613E+02  0.39490383799E+02 -0.58943560482E+01  0.52772780066E+02  0.00000000000E+00 0. -1.
         22    1    1    2    0    0  0.88769410826E+02 -0.89387568446E+01 -0.20056055308E+02  0.91444819573E+02  0.00000000000E+00 0. -1.
</event>
<event>
 6    1  0.4069520E-005  0.2175771E+03  0.7818608E-02  0.1276706E+00
          2   -1    0    0  502    0  0.00000000000E+00  0.00000000000E+00  0.16377098862E+03  0.16377098862E+03  0.00000000000E+00 0.  1.
          1   -1    0    0  501    0 -0.00000000000E+00 -0.00000000000E+00 -0.58435951870E+03  0.58435951870E+03  0.00000000000E+00 0.  1.
          2    1    1    2  501    0  0.72584316305E+02  0.66659551587E+02  0.89218942705E+01  0.98952407695E+02  0.00000000000E+00 0.  1.
          1    1    1    2  502    0  0.36289659206E+02 -0.32136698768E+02 -0.47209651566E+03  0.47457857818E+03  0.00000000000E+00 0.  1.
         22    1    1    2    0    0 -0.10737425324E+03 -0.44811006709E+02 -0.13888653126E+02  0.11717572815E+03  0.00000000000E+00 0.  1.
         22    1    1    2    0    0 -0.14997222696E+01  0.10288153890E+02  0.56474744431E+02  0.57423793291E+02  0.00000000000E+00 0.  1.
</event>
<event>
 6    1  0.4069520E-005  0.1137572E+03  0.7818608E-02  0.1266616E+00
          2   -1    0    0  502    0  0.00000000000E+00  0.00000000000E+00  0.38842920472E+03  0.38842920472E+03  0.00000000000E+00 0. -1.
          1   -1    0    0  501    0 -0.00000000000E+00 -0.00000000000E+00 -0.55559758608E+02  0.55559758608E+02  0.00000000000E+00 0. -1.
          2    1    1    2  501    0  0.23851368291E-01 -0.91556372087E+02  0.41479443014E+02  0.10051424790E+03  0.00000000000E+00 0. -1.
          1    1    1    2  502    0 -0.24450049042E+02  0.20414931955E+02  0.35968475491E+02  0.48044828796E+02  0.00000000000E+00 0. -1.
         22    1    1    2    0    0  0.50881992039E+02  0.71647131561E+02  0.25417801930E+03  0.26894005665E+03  0.00000000000E+00 0. -1.
         22    1    1    2    0    0 -0.26455794365E+02 -0.50569142867E+00  0.12435083028E+01  0.26489829977E+02  0.00000000000E+00 0. -1.
</event>
<event>
 6    1  0.4069520E-005  0.8196450E+02  0.7818608E-02  0.1371081E+00
          2   -1    0    0  502    0  0.00000000000E+00  0.00000000000E+00  0.50388602147E+02  0.50388602147E+02  0.00000000000E+00 0. -1.
          1   -1    0    0  501    0 -0.00000000000E+00 -0.00000000000E+00 -0.80689376723E+03  0.80689376723E+03  0.00000000000E+00 0. -1.
          2    1    1    2  501    0 -0.84546091863E+01 -0.34578046874E+02 -0.42842399529E+02  0.55700924045E+02  0.00000000000E+00 0. -1.
          1    1    1    2  502    0  0.18050345338E+02  0.74780615727E+02 -0.65740586373E+03  0.66189155087E+03  0.00000000000E+00 0. -1.
         22    1    1    2    0    0  0.32531687103E+02  0.16120681424E+02  0.15258600559E+02  0.39382888751E+02  0.00000000000E+00 0. -1.
         22    1    1    2    0    0 -0.42127423255E+02 -0.56323250277E+02 -0.71515502381E+02  0.10030700570E+03  0.00000000000E+00 0. -1.
</event>
<event>
 6    1  0.4069520E-005  0.2464367E+03  0.7818608E-02  0.1175809E+00
          2   -1    0    0  502    0  0.00000000000E+00  0.00000000000E+00  0.95419767644E+03  0.95419767644E+03  0.00000000000E+00 0.  1.
          1   -1    0    0  501    0 -0.00000000000E+00 -0.00000000000E+00 -0.23362855162E+03  0.23362855162E+03  0.00000000000E+00 0.  1.
          2    1    1    2  501    0 -0.31058815836E+02  0.50070911436E+01  0.18987241791E+03  0.19246105083E+03  0.00000000000E+00 0.  1.
          1    1    1    2  502    0  0.21527859706E+03  0.88076956788E+02 -0.14807902434E+03  0.27573505784E+03  0.00000000000E+00 0.  1.
         22    1    1    2    0    0 -0.52380609814E+02  0.25908128860E+02  0.22145762406E+03  0.22903807256E+03  0.00000000000E+00 0.  1.
         22    1    1    2    0    0 -0.13183917141E+03 -0.11899217679E+03  0.45731810719E+03  0.49059204684E+03  0.00000000000E+00 0.  1.
</event>
<event>
 6    1  0.4069520E-005  0.7714231E+02  0.7818608E-02  0.1357005E+00
          2   -1    0    0  502    0  0.00000000000E+00  0.00000000000E+00  0.52031903253E+02  0.52031903253E+02  0.00000000000E+00 0.  1.
          1   -1    0    0  501    0 -0.00000000000E+00 -0.00000000000E+00 -0.56193965515E+03  0.56193965515E+03  0.00000000000E+00 0. -1.
          2    1    1    2  501    0  0.35044522941E+02  0.22987301546E+02 -0.17944018250E+03  0.18426967660E+03  0.00000000000E+00 0.  1.
          1    1    1    2  502    0 -0.88196099201E+02 -0.77203554156E+02 -0.19673118930E+03  0.22900240508E+03  0.00000000000E+00 0. -1.
         22    1    1    2    0    0  0.27615395646E+02  0.47672969394E+02  0.87594957928E+01  0.55785758524E+02  0.00000000000E+00 0.  1.
         22    1    1    2    0    0  0.25536180615E+02  0.65432832152E+01 -0.14249587590E+03  0.14491371821E+03  0.00000000000E+00 0.  1.
</event>
<event>
 6    1  0.4069520E-005  0.1851932E+03  0.7818608E-02  0.1217933E+00
          2   -1    0    0  502    0  0.00000000000E+00  0.00000000000E+00  0.73061117130E+02  0.73061117130E+02  0.00000000000E+00 0. -1.
          1   -1    0    0  501    0 -0.00000000000E+00 -0.00000000000E+00 -0.72965756270E+03  0.72965756270E+03  0.00000000000E+00 0. -1.
          2    1    1    2  501    0  0.13782579564E+02  0.88788757457E+02 -0.84222994202E+02  0.12315403243E+03  0.00000000000E+00 0. -1.
          1    1    1    2  502    0 -0.15977841269E+02 -0.18306851186E+03 -0.42692002410E+03  0.46479035965E+03  0.00000000000E+00 0. -1.
         22    1    1    2    0    0 -0.48956339781E+02  0.24782655297E+02 -0.12508720246E+02  0.56279403786E+02  0.00000000000E+00 0.  1.
         22    1    1    2    0    0  0.51151601485E+02  0.69497099108E+02 -0.13294470702E+03  0.15849488397E+03  0.00000000000E+00 0. -1.
</event>
<event>
 6    1  0.4069520E-005  0.2963824E+03  0.7818608E-02  0.1210764E+00
          2   -1    0    0  502    0  0.00000000000E+00  0.00000000000E+00  0.53979834051E+02  0.53979834051E+02  0.00000000000E+00 0.  1.
          1   -1    0    0  501    0 -0.00000000000E+00 -0.00000000000E+00 -0.14874993925E+04  0.14874993925E+04  0.00000000000E+00 0.  1.
          2    1    1    2  501    0  0.27146584348E+02 -0.54809137540E+02 -0.35280151392E+03  0.35806408201E+03  0.00000000000E+00 0.  1.
          1    1    1    2  502    0  0.10460036437E+03 -0.46485464686E+02 -0.90533677272E+03  0.91254413958E+03  0.00000000000E+00 0.  1.
         22    1    1    2    0    0  0.38225298733E+01 -0.15107098584E+02  0.55850155706E+01  0.16553808056E+02  0.00000000000E+00 0. -1.
         22    1    1    2    0    0 -0.13556947859E+03  0.11640170081E+03 -0.18096628740E+03  0.25431719693E+03  0.00000000000E+00 0.  1.
</event>
<event>
 6    1  0.4069520E-005  0.2731740E+03  0.7818608E-02  0.1196285E+00
          2   -1    0    0  502    0  0.00000000000E+00  0.00000000000E+00  0.41321568383E+03  0.41321568383E+03  0.00000000000E+00 0.  1.
          1   -1    0    0  501    0 -0.00000000000E+00 -0.00000000000E+00 -0.12786428111E+04  0.12786428111E+04  0.00000000000E+00 0.  1.
          2    1    1    2  501    0  0.14562120282E+03 -0.71438631740E+02  0.10104318281E+03  0.19109876402E+03  0.00000000000E+00 0.  1.
          1    1    1    2  502    0 -0.22589472578E+03  0.57588660262E+02 -0.12013121974E+04  0.12237221403E+04  0.00000000000E+00 0.  1.
         22    1    1    2    0    0 -0.13133488006E+02  0.23825888890E+02  0.35994179734E+01  0.27442982679E+02  0.00000000000E+00 0. -1.
         22    1    1    2    0    0  0.93407010968E+02 -0.99759174117E+01  0.23124246942E+03  0.24959460790E+03  0.00000000000E+00 0. -1.
</event>
<event>
 6    1  0.4069520E-005  0.2744181E+03  0.7818608E-02  0.1223195E+00
          2   -1    0    0  502    0  0.00000000000E+00  0.00000000000E+00  0.32574509317E+03  0.32574509317E+03  0.00000000000E+00 0. -1.
          1   -1    0    0  501    0 -0.00000000000E+00 -0.00000000000E+00 -0.79198329783E+03  0.79198329783E+03  0.00000000000E+00 0.  1.
          2    1    1    2  501    0  0.36916056822E+02  0.10399162699E+02  0.19003767702E+03  0.19386917373E+03  0.00000000000E+00 0. -1.
          1    1    1    2  502    0  0.10399339254E+03 -0.44117260325E+02 -0.71578223149E+03  0.72464140184E+03  0.00000000000E+00 0.  1.
         22    1    1    2    0    0 -0.13753509335E+03  0.48438519256E+02  0.85449613319E+01  0.14606576743E+03  0.00000000000E+00 0. -1.
         22    1    1    2    0    0 -0.33743560139E+01 -0.14720421630E+02  0.50961388467E+02  0.53152047994E+02  0.00000000000E+00 0. -1.
</event>
<event>
 6    1  0.4069520E-005  0.9941759E+02  0.7818608E-02  0.1334327E+00
          2   -1    0    0  502    0  0.00000000000E+00  0.00000000000E+00  0.71097876301E+03  0.71097876301E+03  0.00000000000E+00 0. -1.
          1   -1    0    0  501    0 -0.00000000000E+00 -0.00000000000E+00 -0.36501670605E+02  0.36501670605E+02  0.00000000000E+00 0. -1.
          2    1    1    2  501    0 -0.41874893027E+01  0.27974756381E+02  0.45154254770E+02  0.53282537337E+02  0.00000000000E+00 0. -1.
          1    1    1    2  502    0  0.36271686819E+02  0.34304577170E+02  0.49142573901E+03  0.49395515610E+03  0.00000000000E+00 0. -1.
         22    1    1    2    0    0  0.17005907334E+02 -0.33980282495E+02  0.13845771149E+03  0.14357715122E+03  0.00000000000E+00 0. -1.
         22    1    1    2    0    0 -0.49090104850E+02 -0.28299051056E+02 -0.56061285929E+00  0.56665588955E+02  0.00000000000E+00 0. -1.
</event>
<event>
 6    1  0.4069520E-005  0.3177809E+03  0.7818608E-02  0.1099034E+00
          2   -1    0    0  502    0  0.00000000000E+00  0.00000000000E+00  0.32922494729E+03  0.32922494729E+03  0.00000000000E+00 0. -1.
          1   -1    0    0  501    0 -0.00000000000E+00 -0.00000000000E+00 -0.15484538390E+04  0.15484538390E+04  0.00000000000E+00 0. -1.
          2    1    1    2  501    0 -0.14364564489E+03  0.14935046844E+03 -0.89257073989E+02  0.22562459745E+03  0.00000000000E+00 0. -1.
          1    1    1    2  502    0  0.31428108050E+03 -0.13707583419E+03 -0.13219565842E+04  0.13656982070E+04  0.00000000000E+00 0. -1.
         22    1    1    2    0    0  0.12548464447E+01  0.23319488111E+02 -0.35124101090E+01  0.23615888511E+02  0.00000000000E+00 0.  1.
         22    1    1    2    0    0 -0.17189028206E+03 -0.35594122358E+02  0.19549717661E+03  0.26274009339E+03  0.00000000000E+00 0. -1.
</event>
<event>
 6    1  0.4069520E-005  0.4877948E+02  0.7818608E-02  0.1455000E+00
          2   -1    0    0  502    0  0.00000000000E+00  0.00000000000E+00  0.40389633631E+02  0.40389633631E+02  0.00000000000E+00 0.  1.
          1   -1    0    0  501    0 -0.00000000000E+00 -0.00000000000E+00 -0.37664019521E+03  0.37664019521E+03  0.00000000000E+00 0.  1.
          2    1    1    2  501    0 -0.19945978078E+02 -0.14740335301E+02 -0.44091744167E+02  0.50588550384E+02  0.00000000000E+00 0.  1.
          1    1    1    2  502    0  0.38619735770E+01  0.40631670723E+02 -0.20241970768E+03  0.20649354848E+03  0.00000000000E+00 0.  1.
         22    1    1    2    0    0  0.46227728511E+02 -0.70342045813E+01  0.15184288837E+02  0.49163457414E+02  0.00000000000E+00 0.  1.
         22    1    1    2    0    0 -0.30143724010E+02 -0.18857130840E+02 -0.10492339856E+03  0.11078427256E+03  0.00000000000E+00 0.  1.
</event>
<event>
 6    1  0.4069520E-005  0.2282534E+03  0.7818608E-02  0.1222307E+00
          2   -1    0    0  502    0  0.00000000000E+00  0.00000000000E+00  0.32482689504E+03  0.32482689504E+03  0.00000000000E+00 0. -1.
          1   -1    0    0  501    0 -0.00000000000E+00 -0.00000000000E+00 -0.33167180516E+03  0.33167180516E+03  0.00000000000E+00 0. -1.
          2    1    1    2  501    0 -0.34834653578E+02  0.12414141400E+03  0.11812152951E+03  0.17486348817E+03  0.00000000000E+00 0. -1.
          1    1    1    2  502    0  0.69853770758E+02 -0.19991424796E+03 -0.21923280815E+03  0.30480859568E+03  0.00000000000E+00 0. -1.
         22    1    1    2    0    0  0.26731984638E+02 -0.44782524384E+00  0.71201665697E+02  0.76055747634E+02  0.00000000000E+00 0.  1.
         22    1    1    2    0    0 -0.61751101817E+02  0.76220659203E+02  0.23064702827E+02  0.10077086871E+03  0.00000000000E+00 0.  1.
</event>
<event>
 6    1  0.4069520E-005  0.3079858E+03  0.7818608E-02  0.1181083E+00
          2   -1    0    0  502    0  0.00000000000E+00  0.00000000000E+00  0.41688050420E+03  0.41688050420E+03  0.00000000000E+00 0. -1.
          1   -1    0    0  501    0 -0.00000000000E+00 -0.00000000000E+00 -0.85085003439E+03  0.85085003439E+03  0.00000000000E+00 0.  1.
          2    1    1    2  501    0 -0.99554588921E+02  0.12868225673E+03  0.63921305639E+02  0.17480323992E+03  0.00000000000E+00 0. -1.
          1    1    1    2  502    0  0.27419522110E+02 -0.26792216099E+03 -0.73381173754E+03  0.78167370475E+03  0.00000000000E+00 0.  1.
         22    1    1    2    0    0  0.25605434220E+02  0.71388883339E+01  0.13756973609E+03  0.14011436142E+03  0.00000000000E+00 0. -1.
         22    1    1    2    0    0  0.46529632591E+02  0.13210101593E+03  0.98351165627E+02  0.17113923249E+03  0.00000000000E+00 0. -1.
</event>
<event>
 6    1  0.4069520E-005  0.1130536E+03  0.7818608E-02  0.1334735E+00
          2   -1    0    0  502    0  0.00000000000E+00  0.00000000000E+00  0.18346306967E+03  0.18346306967E+03  0.00000000000E+00 0.  1.
          1   -1    0    0  501    0 -0.00000000000E+00 -0.00000000000E+00 -0.17650717277E+03  0.17650717277E+03  0.00000000000E+00 0. -1.
          2    1    1    2  501    0  0.17200256070E+02  0.47317794906E+02  0.57597626314E+02  0.76500386147E+02  0.00000000000E+00 0.  1.
          1    1    1    2  502    0  0.22382306880E+02 -0.28620256610E+02 -0.12762128199E+03  0.13269242016E+03  0.00000000000E+00 0. -1.
         22    1    1    2    0    0 -0.50237589893E+02  0.46425907476E+01 -0.17093175865E+02  0.53268618794E+02  0.00000000000E+00 0. -1.
         22    1    1    2    0    0  0.10655026943E+02 -0.23340129043E+02  0.94072728447E+02  0.97508817347E+02  0.00000000000E+00 0.  1.
</event>
<event>
 6    1  0.4069520E-005  0.1000173E+03  0.7818608E-02  0.1284550E+00
          2   -1    0    0  502    0  0.00000000000E+00  0.00000000000E+00  0.20601935638E+02  0.20601935638E+02  0.00000000000E+00 0.  1.
          1   -1    0    0  501    0 -0.00000000000E+00 -0.00000000000E+00 -0.84375665673E+03  0.84375665673E+03  0.00000000000E+00 0.  1.
          2    1    1    2  501    0  0.25970350542E+02 -0.46092477274E+02 -0.16226823454E+03  0.17067499966E+03  0.00000000000E+00 0.  1.
          1    1    1    2  502    0 -0.20417601930E+02 -0.31553744245E+02 -0.33883948889E+03  0.34091746285E+03  0.00000000000E+00 0.  1.
         22    1    1    2    0    0  0.88489905823E-01  0.10928862654E+03 -0.27367109550E+03  0.29468607065E+03  0.00000000000E+00 0.  1.
         22    1    1    2    0    0 -0.56412385176E+01 -0.31642405025E+02 -0.48375902167E+02  0.58080059213E+02  0.00000000000E+00 0.  1.
</event>
<event>
 6    1  0.4069520E-005  0.1212482E+03  0.7818608E-02  0.1275697E+00
          2   -1    0    0  502    0  0.00000000000E+00  0.00000000000E+00  0.39625018934E+02  0.39625018934E+02  0.00000000000E+00 0. -1.
          1   -1    0    0  501    0 -0.00000000000E+00 -0.00000000000E+00 -0.85757229257E+03  0.85757229257E+03  0.00000000000E+00 0. -1.
          2    1    1    2  501    0 -0.58974168394E+02  0.38252339100E+02 -0.56497369521E+02  0.90183960587E+02  0.00000000000E+00 0. -1.
          1    1    1    2  502    0  0.20882596718E+02 -0.37199466200E+02 -0.59343946242E+03  0.59497082171E+03  0.00000000000E+00 0. -1.
         22    1    1    2    0    0  0.29212921577E+02  0.52333240025E+02 -0.13731283732E+03  0.14982315606E+03  0.00000000000E+00 0.  1.
         22    1    1    2    0    0  0.88786500987E+01 -0.53386112925E+02 -0.30697604384E+02  0.62219373154E+02  0.00000000000E+00 0. -1.
</event>
<event>
 6    1  0.4069520E-005  0.1042389E+03  0.7818608E-02  0.1328520E+00
          2   -1    0    0  502    0  0.00000000000E+00  0.00000000000E+00  0.23686664609E+03  0.23686664609E+03  0.00000000000E+00 0. -1.
          1   -1    0    0  501    0 -0.00000000000E+00 -0.00000000000E+00 -0.50728297938E+03  0.50728297938E+03  0.00000000000E+00 0.  1.
          2    1    1    2  501    0 -0.10415397395E+02 -0.23664603364E+02 -0.10380071533E+02  0.27861081104E+02  0.00000000000E+00 0. -1.
          1    1    1    2  502    0 -0.31614332159E+02  0.11252388199E+02 -0.46904442914E+03  0.47024329740E+03  0.00000000000E+00 0.  1.
         22    1    1    2    0    0  0.76469715305E+02  0.90195554753E+01  0.74443533144E+02  0.10710186444E+03  0.00000000000E+00 0. -1.
         22    1    1    2    0    0 -0.34439985751E+02  0.33926596900E+01  0.13456463425E+03  0.13894338253E+03  0.00000000000E+00 0.  1.
</event>
<event>
 6    1  0.4069520E-005  0.7784491E+02  0.7818608E-02  0.1337553E+00
          2   -1    0    0  502    0  0.00000000000E+00  0.00000000000E+00  0.68997627403E+03  0.68997627403E+03  0.00000000000E+00 0. -1.
          1   -1    0    0  501    0 -0.00000000000E+00 -0.00000000000E+00 -0.16032122411E+04  0.16032122411E+04  0.00000000000E+00 0. -1.
          2    1    1    2  501    0  0.10319409202E+02 -0.36164835387E+02  0.85590695953E+02  0.93488784132E+02  0.00000000000E+00 0. -1.
          1    1    1    2  502    0 -0.24867614645E+02  0.15377339405E+02 -0.15923671581E+04  0.15926355600E+04  0.00000000000E+00 0. -1.
         22    1    1    2    0    0 -0.12549895031E+02  0.68033646956E+02  0.40288001800E+03  0.40877669440E+03  0.00000000000E+00 0.  1.
         22    1    1    2    0    0  0.27098100475E+02 -0.47246150973E+02  0.19066047710E+03  0.19828747656E+03  0.00000000000E+00 0. -1.
</event>
<event>
 6    1  0.6631637E-005  0.1531688E+04  0.7818608E-02  0.1028384E+00
          2   -1    0    0  502    0  0.00000000000E+00  0.00000000000E+00  0.75012599984E+03  0.75012599984E+03  0.00000000000E+00 0. -1.
          1   -1    0    0  501    0 -0.00000000000E+00 -0.00000000000E+00 -0.23725412622E+04  0.23725412622E+04  0.00000000000E+00 0. -1.
          2    1    1    2  501    0  0.79605976678E+03  0.20971599226E+02 -0.57447906401E+03  0.98192522895E+03  0.00000000000E+00 0. -1.
          1    1    1    2  502    0 -0.51000849725E+03 -0.42521896334E+03 -0.13793663238E+04  0.15308727215E+04  0.00000000000E+00 0. -1.
         22    1    1    2    0    0 -0.27580439938E+03  0.40874011593E+03  0.30160755124E+03  0.57801701017E+03  0.00000000000E+00 0. -1.
         22    1    1    2    0    0 -0.10246870162E+02 -0.44927518172E+01  0.29822574284E+02  0.31852301391E+02  0.00000000000E+00 0.  1.
</event>
<event>
 6    1  0.4069520E-005  0.2485142E+03  0.7818608E-02  0.1189380E+00
          2   -1    0    0  502    0  0.00000000000E+00  0.00000000000E+00  0.15903901793E+03  0.15903901793E+03  0.00000000000E+00 0. -1.
          1   -1    0    0  501    0 -0.00000000000E+00 -0.00000000000E+00 -0.33040478105E+03  0.33040478105E+03  0.00000000000E+00 0. -1.
          2    1    1    2  501    0  0.86293684299E+02  0.12898913893E+03 -0.81151990497E+02  0.17512979036E+03  0.00000000000E+00 0. -1.
          1    1    1    2  502    0 -0.11682829208E+03 -0.84152293854E+02 -0.97224531258E+02  0.17373274841E+03  0.00000000000E+00 0. -1.
         22    1    1    2    0    0 -0.32029665365E+02  0.27259748159E+02  0.15319435756E+02  0.44762466922E+02  0.00000000000E+00 0. -1.
         22    1    1    2    0    0  0.62564273147E+02 -0.72096593235E+02 -0.83086771272E+01  0.95818793282E+02  0.00000000000E+00 0. -1.
</event>
<event>
 6    1  0.4069520E-005  0.2369290E+03  0.7818608E-02  0.1224484E+00
          2   -1    0    0  502    0  0.00000000000E+00  0.00000000000E+00  0.43614692113E+03  0.43614692113E+03  0.00000000000E+00 0.  1.
          1   -1    0    0  501    0 -0.00000000000E+00 -0.00000000000E+00 -0.43580220452E+03  0.43580220452E+03  0.00000000000E+00 0. -1.
          2    1    1    2  501    0 -0.23755485008E+02  0.43281268950E+02  0.55166252213E+02  0.74033145909E+02  0.00000000000E+00 0.  1.
          1    1    1    2  502    0 -0.15543907782E+03 -0.36368486014E+02 -0.37578713157E+03  0.40828904216E+03  0.00000000000E+00 0. -1.
         22    1    1    2    0    0 -0.11720115251E+02  0.19606743124E+02  0.67091390183E+02  0.70873409076E+02  0.00000000000E+00 0.  1.
         22    1    1    2    0    0  0.19091467808E+03 -0.26519526060E+02  0.25387420580E+03  0.31875352851E+03  0.00000000000E+00 0. -1.
</event>
<event>
 6    1  0.4069520E-005  0.1405358E+03  0.7818608E-02  0.1262144E+00
          2   -1    0    0  502    0  0.00000000000E+00  0.00000000000E+00  0.32300271733E+02  0.32300271733E+02  0.00000000000E+00 0.  1.
          1   -1    0    0  501    0 -0.00000000000E+00 -0.00000000000E+00 -0.48114284238E+03  0.48114284238E+03  0.00000000000E+00 0.  1.
          2    1    1    2  501    0 -0.17580976713E+02  0.38955258948E+02 -0.11112808703E+03  0.11906323811E+03  0.00000000000E+00 0.  1.
          1    1    1    2  502    0  0.34462771574E+01  0.36496360628E+02 -0.16472716274E+03  0.16875692374E+03  0.00000000000E+00 0.  1.
         22    1    1    2    0    0  0.43182885169E+02  0.16280149391E+02 -0.76600948310E+02  0.89428799152E+02  0.00000000000E+00 0.  1.
         22    1    1    2    0    0 -0.29048185614E+02 -0.91731768968E+02 -0.96386372561E+02  0.13619415311E+03  0.00000000000E+00 0.  1.
</event>
<event>
 6    1  0.4069520E-005  0.2108860E+03  0.7818608E-02  0.1218100E+00
          2   -1    0    0  502    0  0.00000000000E+00  0.00000000000E+00  0.11030779460E+03  0.11030779460E+03  0.00000000000E+00 0. -1.
          1   -1    0    0  501    0 -0.00000000000E+00 -0.00000000000E+00 -0.12804814723E+04  0.12804814723E+04  0.00000000000E+00 0. -1.
          2    1    1    2  501    0 -0.69021146650E+01 -0.16163954287E+03 -0.97791820624E+03  0.99121087519E+03  0.00000000000E+00 0. -1.
          1    1    1    2  502    0 -0.26206073095E+02  0.21017845845E+03 -0.13103612374E+03  0.24906265957E+03  0.00000000000E+00 0. -1.
         22    1    1    2    0    0 -0.29963127736E+00 -0.37028469586E+02  0.33179710816E+02  0.49720122170E+02  0.00000000000E+00 0.  1.
         22    1    1    2    0    0  0.33407819037E+02 -0.11510445999E+02 -0.94399058574E+02  0.10079561002E+03  0.00000000000E+00 0. -1.
</event>
<event>
 6    1  0.4069520E-005  0.1928194E+03  0.7818608E-02  0.1213693E+00
          2   -1    0    0  502    0  0.00000000000E+00  0.00000000000E+00  0.69226060169E+03  0.69226060169E+03  0.00000000000E+00 0.  1.
          1   -1    0    0  501    0 -0.00000000000E+00 -0.00000000000E+00 -0.34330217651E+03  0.34330217651E+03  0.00000000000E+00 0.  1.
          2    1    1    2  501    0  0.11618584351E+03 -0.42142231136E+02  0.26964376717E+03  0.29661908073E+03  0.00000000000E+00 0.  1.
          1    1    1    2  502    0 -0.47341761904E+02  0.94393042100E+02 -0.30601381588E+03  0.32372170815E+03  0.00000000000E+00 0.  1.
         22    1    1    2    0    0 -0.32599610028E+02  0.42008861657E+02  0.11690829330E+03  0.12843297113E+03  0.00000000000E+00 0. -1.
         22    1    1    2    0    0 -0.36244471582E+02 -0.94259672622E+02  0.26842018059E+03  0.28678901819E+03  0.00000000000E+00 0.  1.
</event>
<event>
 6    1  0.4069520E-005  0.2394901E+03  0.7818608E-02  0.1194106E+00
          2   -1    0    0  502    0  0.00000000000E+00  0.00000000000E+00  0.73693863401E+02  0.73693863401E+02  0.00000000000E+00 0. -1.
          1   -1    0    0  501    0 -0.00000000000E+00 -0.00000000000E+00 -0.77009267099E+03  0.77009267099E+03  0.00000000000E+00 0. -1.
          2    1    1    2  501    0 -0.47953989296E+02  0.42249734775E+02 -0.30654892005E+03  0.31314032887E+03  0.00000000000E+00 0. -1.
          1    1    1    2  502    0  0.16585837545E+03 -0.82974787952E+02 -0.22136545864E+03  0.28878449131E+03  0.00000000000E+00 0. -1.
         22    1    1    2    0    0  0.13263945075E+02  0.40217824843E+02 -0.40362072514E+02  0.58502158692E+02  0.00000000000E+00 0. -1.
         22    1    1    2    0    0 -0.13116833122E+03  0.50722833486E+00 -0.12812235638E+03  0.18335955552E+03  0.00000000000E+00 0.  1.
</event>
<event>
 6    1  0.4069520E-005  0.2485337E+03  0.7818608E-02  0.1231142E+00
          2   -1    0    0  502    0  0.00000000000E+00  0.00000000000E+00  0.81750917503E+03  0.81750917503E+03  0.00000000000E+00 0. -1.
          1   -1    0    0  501    0 -0.00000000000E+00 -0.00000000000E+00 -0.10728661038E+03  0.10728661038E+03  0.00000000000E+00 0. -1.
          2    1    1    2  501    0 -0.15286999155E+03  0.17542763322E+03  0.12604033031E+03  0.26463229901E+03  0.00000000000E+00 0. -1.
          1    1    1    2  502    0  0.74491435819E+02 -0.98149840409E+02  0.35760127940E+03  0.37823410767E+03  0.00000000000E+00 0. -1.
         22    1    1    2    0    0 -0.24486283650E+01  0.17064527037E+02 -0.59960989717E+01  0.18252316750E+02  0.00000000000E+00 0.  1.
         22    1    1    2    0    0  0.80827184095E+02 -0.94342319846E+02  0.23257705392E+03  0.26367706198E+03  0.00000000000E+00 0. -1.
</event>
<event>
 6    1  0.4069520E-005  0.6937715E+02  0.7818608E-02  0.1455794E+00
          2   -1    0    0  502    0  0.00000000000E+00  0.00000000000E+00  0.61775643352E+02  0.61775643352E+02  0.00000000000E+00 0. -1.
          1   -1    0    0  501    0 -0.00000000000E+00 -0.00000000000E+00 -0.22148762426E+03  0.22148762426E+03  0.00000000000E+00 0. -1.
          2    1    1    2  501    0  0.11786469900E+01 -0.23354049399E+02 -0.63763333912E+02  0.67915856644E+02  0.00000000000E+00 0. -1.
          1    1    1    2  502    0  0.30288205323E+02  0.78871374724E+01  0.25767708752E+02  0.40540808250E+02  0.00000000000E+00 0. -1.
         22    1    1    2    0    0  0.26826192063E+01 -0.15821266903E+02  0.20041522951E+02  0.25674336883E+02  0.00000000000E+00 0. -1.
         22    1    1    2    0    0 -0.34149471520E+02  0.31288178829E+02 -0.14175787870E+03  0.14913226583E+03  0.00000000000E+00 0. -1.
</event>
<event>
 6    1  0.4069520E-005  0.7872800E+02  0.7818608E-02  0.1334116E+00
          2   -1    0    0  502    0  0.00000000000E+00  0.00000000000E+00  0.88808261974E+02  0.88808261974E+02  0.00000000000E+00 0. -1.
          1   -1    0    0  501    0 -0.00000000000E+00 -0.00000000000E+00 -0.12240808194E+04  0.12240808194E+04  0.00000000000E+00 0.  1.
          2    1    1    2  501    0 -0.47132582259E+01 -0.34137657920E+02  0.55134617742E+01  0.34899752894E+02  0.00000000000E+00 0. -1.
          1    1    1    2  502    0 -0.18984883734E+02  0.15118441636E+02 -0.11519561862E+04  0.11522118069E+04  0.00000000000E+00 0.  1.
         22    1    1    2    0    0  0.13067350062E+02  0.70466233381E+02  0.14570330255E+02  0.73133714580E+02  0.00000000000E+00 0. -1.
         22    1    1    2    0    0  0.10630791898E+02 -0.51447017097E+02 -0.34001632723E+01  0.52643806994E+02  0.00000000000E+00 0. -1.
</event>
<event>
 6    1  0.4069520E-005  0.1200519E+03  0.7818608E-02  0.1312107E+00
          2   -1    0    0  502    0  0.00000000000E+00  0.00000000000E+00  0.20974944186E+02  0.20974944186E+02  0.00000000000E+00 0. -1.
          1   -1    0    0  501    0 -0.00000000000E+00 -0.00000000000E+00 -0.83759665184E+03  0.83759665184E+03  0.00000000000E+00 0. -1.
          2    1    1    2  501    0 -0.37399882947E+02  0.20782508234E+02 -0.39334064003E+03  0.39566086867E+03  0.00000000000E+00 0. -1.
          1    1    1    2  502    0 -0.66234982282E+01  0.22230109911E+02 -0.94700639603E+01  0.25054553016E+02  0.00000000000E+00 0. -1.
         22    1    1    2    0    0 -0.25603837451E+02 -0.19745504194E+02 -0.21718597647E+02  0.38950467415E+02  0.00000000000E+00 0.  1.
         22    1    1    2    0    0  0.69627218627E+02 -0.23267113951E+02 -0.39209240602E+03  0.39890570693E+03  0.00000000000E+00 0. -1.
</event>
<event>
 6    1  0.4069520E-005  0.1765891E+03  0.7818608E-02  0.1312090E+00
          2   -1    0    0  502    0  0.00000000000E+00  0.00000000000E+00  0.73502173800E+02  0.73502173800E+02  0.00000000000E+00 0.  1.
          1   -1    0    0  501    0 -0.00000000000E+00 -0.00000000000E+00 -0.66606711556E+03  0.66606711556E+03  0.00000000000E+00 0. -1.
          2    1    1    2  501    0  0.53790958608E+02 -0.30842849598E+02 -0.25617719706E+02  0.67089612923E+02  0.00000000000E+00 0.  1.
          1    1    1    2  502    0 -0.15131623845E+03 -0.11561374702E+02 -0.44123786228E+03  0.46660595851E+03  0.00000000000E+00 0. -1.
         22    1    1    2    0    0  0.99628531244E+02  0.32557652107E+02 -0.14803413234E+03  0.18138343168E+03  0.00000000000E+00 0.  1.
         22    1    1    2    0    0 -0.21032514039E+01  0.98465721925E+01  0.22324772570E+02  0.24490286252E+02  0.00000000000E+00 0.  1.
</event>
<event>
 6    1  0.4069520E-005  0.8964861E+02  0.7818608E-02  0.1365343E+00
          2   -1    0    0  502    0  0.00000000000E+00  0.00000000000E+00  0.25304533237E+03  0.25304533237E+03  0.00000000000E+00 0. -1.
          1   -1    0    0  501    0 -0.00000000000E+00 -0.00000000000E+00 -0.31894873455E+03  0.31894873455E+03  0.00000000000E+00 0. -1.
          2    1    1    2  501    0  0.31388221503E+02  0.39507605526E+02  0.90710504468E+02  0.10380012989E+03  0.00000000000E+00 0. -1.
          1    1    1    2  502    0  0.12638889414E+02 -0.70459241974E+02 -0.27727124763E+03  0.28636269148E+03  0.00000000000E+00 0. -1.
         22    1    1    2    0    0 -0.30520981919E+02  0.88352937102E-01 -0.20462558993E+02  0.36745808796E+02  0.00000000000E+00 0. -1.
         22    1    1    2    0    0 -0.13506128998E+02  0.30863283511E+02  0.14111989998E+03  0.14508543676E+03  0.00000000000E+00 0. -1.
</event>
<event>
 6    1  0.4069520E-005  0.8835650E+02  0.7818608E-02  0.1312440E+00
          2   -1    0    0  502    0  0.00000000000E+00  0.00000000000E+00  0.87947927349E+03  0.87947927349E+03  0.00000000000E+00 0.  1.
          1   -1    0    0  501    0 -0.00000000000E+00 -0.00000000000E+00 -0.18547974627E+02  0.18547974627E+02  0.00000000000E+00 0.  1.
          2    1    1    2  501    0 -0.46798171574E+02  0.25819620363E+01  0.19493918854E+03  0.20049444536E+03  0.00000000000E+00 0.  1.
          1    1    1    2  502    0  0.42429621159E+02 -0.25308581075E+02  0.60133248065E+02  0.77825474946E+02  0.00000000000E+00 0.  1.
         22    1    1    2    0    0  0.46681590500E+02  0.58457992904E+02  0.35920635702E+03  0.36691377018E+03  0.00000000000E+00 0. -1.
         22    1    1    2    0    0 -0.42313040085E+02 -0.35731373866E+02  0.24665250523E+03  0.25279355763E+03  0.00000000000E+00 0.  1.
</event>
<event>
 6    1  0.4069520E-005  0.2235647E+03  0.7818608E-02  0.1132190E+00
          2   -1    0    0  502    0  0.00000000000E+00  0.00000000000E+00  0.20035667870E+03  0.20035667870E+03  0.00000000000E+00 0.  1.
          1   -1    0    0  501    0 -0.00000000000E+00 -0.00000000000E+00 -0.12087393098E+04  0.12087393098E+04  0.00000000000E+00 0.  1.
          2    1    1    2  501    0  0.33865985060E+02 -0.29491977761E+03 -0.20759103745E+03  0.36224110617E+03  0.00000000000E+00 0.  1.
          1    1    1    2  502    0 -0.30569899951E+02  0.11931748959E+03 -0.81946927160E+03  0.82867428414E+03  0.00000000000E+00 0.  1.
         22    1    1    2    0    0 -0.95730773582E+01 -0.17277029439E+02 -0.11497026095E+02  0.22854346750E+02  0.00000000000E+00 0. -1.
         22    1    1    2    0    0  0.62769922488E+01  0.19287931747E+03  0.30174704036E+02  0.19532625144E+03  0.00000000000E+00 0.  1.
</event>
<event>
 6    1  0.4069520E-005  0.2309116E+03  0.7818608E-02  0.1260749E+00
          2   -1    0    0  502    0  0.00000000000E+00  0.00000000000E+00  0.66095253843E+02  0.66095253843E+02  0.00000000000E+00 0.  1.
          1   -1    0    0  501    0 -0.00000000000E+00 -0.00000000000E+00 -0.16689972418E+04  0.16689972418E+04  0.00000000000E+00 0. -1.
          2    1    1    2  501    0 -0.75475510638E+02  0.18806757353E+00  0.39452359740E+01  0.75578786457E+02  0.00000000000E+00 0.  1.
          1    1    1    2  502    0  0.37614596350E+02  0.81588113225E+02 -0.13992660446E+04  0.14021472610E+04  0.00000000000E+00 0. -1.
         22    1    1    2    0    0 -0.10840533778E+02 -0.47853914738E+01  0.13671516855E+02  0.18092194927E+02  0.00000000000E+00 0.  1.
         22    1    1    2    0    0  0.48701448066E+02 -0.76990789325E+02 -0.22125269624E+03  0.23927425327E+03  0.00000000000E+00 0. -1.
</event>
<event>
 6    1  0.4069520E-005  0.1804129E+03  0.7818608E-02  0.1299353E+00
          2   -1    0    0  502    0  0.00000000000E+00  0.00000000000E+00  0.15182274857E+03  0.15182274857E+03  0.00000000000E+00 0. -1.
          1   -1    0    0  501    0 -0.00000000000E+00 -0.00000000000E+00 -0.42831469681E+03  0.42831469681E+03  0.00000000000E+00 0. -1.
          2    1    1    2  501    0  0.49604092379E+02 -0.47578694291E+02 -0.35283619943E+02  0.77260804859E+02  0.00000000000E+00 0. -1.
          1    1    1    2  502    0 -0.12612462168E+03  0.11949944137E+03 -0.28317238000E+03  0.33222602770E+03  0.00000000000E+00 0. -1.
         22    1    1    2    0    0 -0.70525245488E+01  0.96048066931E+01  0.52113971757E+02  0.53458923169E+02  0.00000000000E+00 0. -1.
         22    1    1    2    0    0  0.83573053854E+02 -0.81525553768E+02 -0.10149920051E+02  0.11719168966E+03  0.00000000000E+00 0. -1.
</event>
<event>
 6    1  0.4069520E-005  0.1071621E+03  0.7818608E-02  0.1338087E+00
          2   -1    0    0  502    0  0.00000000000E+00  0.00000000000E+00  0.25902833440E+03  0.25902833440E+03  0.00000000000E+00 0.  1.
          1   -1    0    0  501    0 -0.00000000000E+00 -0.00000000000E+00 -0.13037415407E+03  0.13037415407E+03  0.00000000000E+00 0.  1.
          2    1    1    2  501    0 -0.13546254727E+02 -0.14810656721E+02  0.37498381320E+02  0.42532166313E+02  0.00000000000E+00 0.  1.
          1    1    1    2  502    0  0.39895753236E+02 -0.52889664253E+02 -0.92979383241E+02  0.11416721692E+03  0.00000000000E+00 0.  1.
         22    1    1    2    0    0 -0.19767571040E+02  0.95344187600E+02  0.83946294337E+02  0.12856224682E+03  0.00000000000E+00 0.  1.
         22    1    1    2    0    0 -0.65819274691E+01 -0.27643866626E+02  0.10018888791E+03  0.10414085842E+03  0.00000000000E+00 0.  1.
</event>
<event>
 6    1  0.4069520E-005  0.8284871E+02  0.7818608E-02  0.1405737E+00
          2   -1    0    0  502    0  0.00000000000E+00  0.00000000000E+00  0.15330738137E+03  0.15330738137E+03  0.00000000000E+00 0.  1.
          1   -1    0    0  501    0 -0.00000000000E+00 -0.00000000000E+00 -0.63115896559E+03  0.63115896559E+03  0.00000000000E+00 0.  1.
          2    1    1    2  501    0  0.19143591139E+02 -0.20777973745E+02 -0.73825589612E+01  0.29201086478E+02  0.00000000000E+00 0.  1.
          1    1    1    2  502    0 -0.29895075483E+02 -0.20063517088E+02 -0.58287273219E+03  0.58398363178E+03  0.00000000000E+00 0.  1.
         22    1    1    2    0    0 -0.40772763776E+01  0.54433029423E+02 -0.24881334434E+01  0.54642196907E+02  0.00000000000E+00 0.  1.
         22    1    1    2    0    0  0.14828760721E+02 -0.13591538590E+02  0.11489184037E+03  0.11663943180E+03  0.00000000000E+00 0.  1.
</event>
<event>
 6    1  0.4069520E-005  0.4748516E+02  0.7818608E-02  0.1521776E+00
          2   -1    0    0  502    0  0.00000000000E+00  0.00000000000E+00  0.27363530069E+02  0.27363530069E+02  0.00000000000E+00 0. -1.
          1   -1    0    0  501    0 -0.00000000000E+00 -0.00000000000E+00 -0.36301527198E+03  0.36301527198E+03  0.00000000000E+00 0. -1.
          2    1    1    2  501    0  0.17417562891E+01 -0.25977216679E+02 -0.11298909435E+03  0.11594992430E+03  0.00000000000E+00 0. -1.
          1    1    1    2  502    0  0.95333487108E+01  0.29819614127E+02 -0.80229651689E+02  0.86121374435E+02  0.00000000000E+00 0. -1.
         22    1    1    2    0    0 -0.20891029274E+02 -0.21285573894E+02 -0.15938545570E+03  0.16215188636E+03  0.00000000000E+00 0. -1.
         22    1    1    2    0    0  0.96159242737E+01  0.17443176446E+02  0.16952459834E+02  0.26155616961E+02  0.00000000000E+00 0. -1.
</event>
<event>
 6    1  0.4069520E-005  0.1009912E+03  0.7818608E-02  0.1292968E+00
          2   -1    0    0  502    0  0.00000000000E+00  0.00000000000E+00  0.54625704593E+03  0.54625704593E+03  0.00000000000E+00 0.  1.
          1   -1    0    0  501    0 -0.00000000000E+00 -0.00000000000E+00 -0.16209068157E+03  0.16209068157E+03  0.00000000000E+00 0. -1.
          2    1    1    2  501    0  0.17554868790E+02  0.53028703249E+02  0.16572805009E+03  0.17488854557E+03  0.00000000000E+00 0.  1.
          1    1    1    2  502    0 -0.16939151251E+02 -0.31836049068E+02 -0.14423253150E+03  0.14867243190E+03  0.00000000000E+00 0. -1.
         22    1    1    2    0    0  0.53918515774E+02  0.45413546227E+01  0.26124017591E+03  0.26678504410E+03  0.00000000000E+00 0.  1.
         22    1    1    2    0    0 -0.54534233313E+02 -0.25734008804E+02  0.10143066986E+03  0.11800170592E+03  0.00000000000E+00 0.  1.
</event>
<event>
 6    1  0.5919911E-005  0.2363564E+03  0.7818608E-02  0.1221584E+00
          2   -1    0    0  502    0  0.00000000000E+00  0.00000000000E+00  0.34372696127E+03  0.34372696127E+03  0.00000000000E+00 0. -1.
          1   -1    0    0  501    0 -0.00000000000E+00 -0.00000000000E+00 -0.37110869212E+03  0.37110869212E+03  0.00000000000E+00 0. -1.
          2    1    1    2  501    0  0.53787758212E+02 -0.25917109202E+02 -0.23611953751E+02  0.64205481408E+02  0.00000000000E+00 0. -1.
          1    1    1    2  502    0 -0.84424827047E+02  0.26880024569E+01 -0.30840616832E+03  0.31976419661E+03  0.00000000000E+00 0. -1.
         22    1    1    2    0    0  0.49524882191E+02  0.77092719542E+01  0.30216669743E+03  0.30629538009E+03  0.00000000000E+00 0. -1.
         22    1    1    2    0    0 -0.18887813356E+02  0.15519834791E+02  0.24696937955E+01  0.24570595287E+02  0.00000000000E+00 0.  1.
</event>
<event>
 6    1  0.4069520E-005  0.4177469E+03  0.7818608E-02  0.1140441E+00
          2   -1    0    0  502    0  0.00000000000E+00  0.00000000000E+00  0.43692827178E+03  0.43692827178E+03  0.00000000000E+00 0. -1.
          1   -1    0    0  501    0 -0.00000000000E+00 -0.00000000000E+00 -0.66833735515E+03  0.66833735515E+03  0.00000000000E+00 0. -1.
          2    1    1    2  501    0 -0.23366351555E+03  0.31588245793E+02 -0.43445354550E+01  0.23582902866E+03  0.00000000000E+00 0. -1.
          1    1    1    2  502    0  0.40905930668E+03 -0.31212240007E+01 -0.41352964189E+03  0.58167518698E+03  0.00000000000E+00 0. -1.
         22    1    1    2    0    0 -0.17254293567E+02 -0.21297154185E+02  0.10733992920E+03  0.11078420385E+03  0.00000000000E+00 0. -1.
         22    1    1    2    0    0 -0.15814149756E+03 -0.71698676078E+01  0.79125164769E+02  0.17697720744E+03  0.00000000000E+00 0. -1.
</event>
<event>
 6    1  0.4069520E-005  0.1717747E+03  0.7818608E-02  0.1254869E+00
          2   -1    0    0  502    0  0.00000000000E+00  0.00000000000E+00  0.97048999432E+03  0.97048999432E+03  0.00000000000E+00 0. -1.
          1   -1    0    0  501    0 -0.00000000000E+00 -0.00000000000E+00 -0.11230790739E+03  0.11230790739E+03  0.00000000000E+00 0.  1.
          2    1    1    2  501    0 -0.32163888483E+02  0.37142914867E+02  0.17033808649E+03  0.17728275595E+03  0.00000000000E+00 0. -1.
          1    1    1    2  502    0  0.81768028622E+01  0.68200364880E+02 -0.87935573557E+02  0.11158321994E+03  0.00000000000E+00 0.  1.
         22    1    1    2    0    0  0.12856296368E+02 -0.13569124494E+03  0.61221183292E+03  0.62720070685E+03  0.00000000000E+00 0. -1.
         22    1    1    2    0    0  0.11130789252E+02  0.30347965189E+02  0.16356774108E+03  0.16673121898E+03  0.00000000000E+00 0. -1.
</event>
<event>
 6    1  0.4069520E-005  0.1239485E+03  0.7818608E-02  0.1256412E+00
          2   -1    0    0  502    0  0.00000000000E+00  0.00000000000E+00  0.61784514461E+02  0.61784514461E+02  0.00000000000E+00 0. -1.
          1   -1    0    0  501    0 -0.00000000000E+00 -0.00000000000E+00 -0.21905482950E+04  0.21905482950E+04  0.00000000000E+00 0.  1.
          2    1    1    2  501    0 -0.56491683549E+02 -0.69841601483E+02 -0.11703174134E+03  0.14753165114E+03  0.00000000000E+00 0. -1.
          1    1    1    2  502    0  0.11680769541E+03  0.20657861964E+02 -0.19379549970E+04  0.19415819209E+04  0.00000000000E+00 0.  1.
         22    1    1    2    0    0 -0.10948375235E+02  0.82729268804E+02 -0.28080014446E+02  0.88048202982E+02  0.00000000000E+00 0.  1.
         22    1    1    2    0    0 -0.49367636622E+02 -0.33545529284E+02 -0.45697027754E+02  0.75171034489E+02  0.00000000000E+00 0.  1.
</event>
<event>
 6    1  0.4069520E-005  0.3135129E+03  0.7818608E-02  0.1102898E+00
          2   -1    0    0  502    0  0.00000000000E+00  0.00000000000E+00  0.31014425045E+03  0.31014425045E+03  0.00000000000E+00 0. -1.
          1   -1    0    0  501    0 -0.00000000000E+00 -0.00000000000E+00 -0.13090365972E+04  0.13090365972E+04  0.00000000000E+00 0. -1.
          2    1    1    2  501    0  0.16759704366E+02  0.14919255197E+03 -0.37050493088E+02  0.15463519746E+03  0.00000000000E+00 0. -1.
          1    1    1    2  502    0 -0.37499134661E+02 -0.33867028699E+03 -0.11315666239E+04  0.11817558008E+04  0.00000000000E+00 0. -1.
         22    1    1    2    0    0 -0.33781916428E+02  0.33328536488E+02  0.23965869497E+01  0.47515816851E+02  0.00000000000E+00 0. -1.
         22    1    1    2    0    0  0.54521346723E+02  0.15614919853E+03  0.16732818331E+03  0.23527403253E+03  0.00000000000E+00 0. -1.
</event>
<event>
 6    1  0.4069520E-005  0.7518995E+02  0.7818608E-02  0.1449033E+00
          2   -1    0    0  502    0  0.00000000000E+00  0.00000000000E+00  0.18382413073E+02  0.18382413073E+02  0.00000000000E+00 0. -1.
          1   -1    0    0  501    0 -0.00000000000E+00 -0.00000000000E+00 -0.29631376801E+04  0.29631376801E+04  0.00000000000E+00 0. -1.
          2    1    1    2  501    0 -0.10206897913E+02  0.24596429702E+02 -0.89018911885E+02  0.92916800376E+02  0.00000000000E+00 0. -1.
          1    1    1    2  502    0  0.48754762078E+02 -0.41111610926E+02 -0.26066226920E+04  0.26074027403E+04  0.00000000000E+00 0. -1.
         22    1    1    2    0    0 -0.43085025207E+02  0.33539365767E+01 -0.25997569616E+03  0.26354303421E+03  0.00000000000E+00 0. -1.
         22    1    1    2    0    0  0.45371610421E+01  0.13161244648E+02  0.10862033048E+02  0.17657518312E+02  0.00000000000E+00 0. -1.
</event>
<event>
 6    1  0.4069520E-005  0.1878099E+03  0.7818608E-02  0.1228588E+00
          2   -1    0    0  502    0  0.00000000000E+00  0.00000000000E+00  0.50235299668E+03  0.50235299668E+03  0.00000000000E+00 0. -1.
          1   -1    0    0  501    0 -0.00000000000E+00 -0.00000000000E+00 -0.21496199735E+03  0.21496199735E+03  0.00000000000E+00 0. -1.
          2    1    1    2  501    0  0.44383650230E+02 -0.29300537076E+02  0.15903941241E+02  0.55510046187E+02  0.00000000000E+00 0. -1.
          1    1    1    2  502    0  0.11026935108E+01  0.22345488549E+02 -0.18551012647E+03  0.18685433849E+03  0.00000000000E+00 0. -1.
         22    1    1    2    0    0  0.41819835875E+02  0.17822056429E+01  0.15304551872E+03  0.15866633459E+03  0.00000000000E+00 0.  1.
         22    1    1    2    0    0 -0.87306179617E+02  0.51728428839E+01  0.30395166583E+03  0.31628427476E+03  0.00000000000E+00 0. -1.
</event>
<event>
 6    1  0.4069520E-005  0.1523848E+03  0.7818608E-02  0.1249199E+00
          2   -1    0    0  502    0  0.00000000000E+00  0.00000000000E+00  0.55761356397E+02  0.55761356397E+02  0.00000000000E+00 0. -1.
          1   -1    0    0  501    0 -0.00000000000E+00 -0.00000000000E+00 -0.55879801313E+03  0.55879801313E+03  0.00000000000E+00 0. -1.
          2    1    1    2  501    0  0.80255570543E+01 -0.29343149162E+02 -0.10590430533E+03  0.11018689512E+03  0.00000000000E+00 0. -1.
          1    1    1    2  502    0 -0.20022527238E+02 -0.18873669147E+01 -0.36702660050E+03  0.36757718812E+03  0.00000000000E+00 0. -1.
         22    1    1    2    0    0 -0.18194574489E+02  0.75723189301E+02 -0.67428250458E+01  0.78169748806E+02  0.00000000000E+00 0. -1.
         22    1    1    2    0    0  0.30191544672E+02 -0.44492673224E+02 -0.23362925855E+02  0.58625537480E+02  0.00000000000E+00 0. -1.
</event>
<event>
 6    1  0.4069520E-005  0.8911042E+02  0.7818608E-02  0.1378349E+00
          2   -1    0    0  502    0  0.00000000000E+00  0.00000000000E+00  0.14886571779E+03  0.14886571779E+03  0.00000000000E+00 0.  1.
          1   -1    0    0  501    0 -0.00000000000E+00 -0.00000000000E+00 -0.19104445422E+03  0.19104445422E+03  0.00000000000E+00 0.  1.
          2    1    1    2  501    0  0.93613055886E+01  0.19966747936E+02 -0.68062774160E+01  0.23078788481E+02  0.00000000000E+00 0.  1.
          1    1    1    2  502    0 -0.51635565327E+01 -0.78869414505E+02 -0.12888290962E+03  0.15118813198E+03  0.00000000000E+00 0.  1.
         22    1    1    2    0    0  0.18309122400E+02 -0.17128331671E+02  0.81719416022E+02  0.85479042250E+02  0.00000000000E+00 0.  1.
         22    1    1    2    0    0 -0.22506871456E+02  0.76030998240E+02  0.11791034582E+02  0.80164209300E+02  0.00000000000E+00 0.  1.
</event>
<event>
 6    1  0.4069520E-005  0.2437130E+03  0.7818608E-02  0.1244964E+00
          2   -1    0    0  502    0  0.00000000000E+00  0.00000000000E+00  0.14390738046E+03  0.14390738046E+03  0.00000000000E+00 0.  1.
          1   -1    0    0  501    0 -0.00000000000E+00 -0.00000000000E+00 -0.63816070763E+03  0.63816070763E+03  0.00000000000E+00 0.  1.
          2    1    1    2  501    0  0.10827826705E+03 -0.14669127346E+03 -0.15110434304E+03  0.23680167928E+03  0.00000000000E+00 0.  1.
          1    1    1    2  502    0 -0.11227649688E+03  0.21252220312E+03 -0.32335225023E+03  0.40289995818E+03  0.00000000000E+00 0.  1.
         22    1    1    2    0    0 -0.10192446444E+02 -0.92962970246E+01  0.49747834926E+02  0.51625131310E+02  0.00000000000E+00 0.  1.
         22    1    1    2    0    0  0.14190676267E+02 -0.56534632638E+02 -0.69544568817E+02  0.90741319323E+02  0.00000000000E+00 0.  1.
</event>
<event>
 6    1  0.4069520E-005  0.9339834E+02  0.7818608E-02  0.1327292E+00
          2   -1    0    0  502    0  0.00000000000E+00  0.00000000000E+00  0.74400052736E+02  0.74400052736E+02  0.00000000000E+00 0.  1.
          1   -1    0    0  501    0 -0.00000000000E+00 -0.00000000000E+00 -0.84637085860E+03  0.84637085860E+03  0.00000000000E+00 0.  1.
          2    1    1    2  501    0 -0.32122201825E+02  0.58254570776E+02 -0.29740424724E+03  0.30475353508E+03  0.00000000000E+00 0.  1.
          1    1    1    2  502    0  0.72290809992E+02 -0.79633276920E+02 -0.47523738194E+03  0.48725556867E+03  0.00000000000E+00 0.  1.
         22    1    1    2    0    0 -0.50565290420E+02  0.11509330491E+02  0.53210734375E+02  0.74301383139E+02  0.00000000000E+00 0.  1.
         22    1    1    2    0    0  0.10396682253E+02  0.98693756541E+01 -0.52539911053E+02  0.54460424448E+02  0.00000000000E+00 0.  1.
</event>
<event>
 6    1  0.4069520E-005  0.1912217E+03  0.7818608E-02  0.1243868E+00
          2   -1    0    0  502    0  0.00000000000E+00  0.00000000000E+00  0.72187094992E+02  0.72187094992E+02  0.00000000000E+00 0. -1.
          1   -1    0    0  501    0 -0.00000000000E+00 -0.00000000000E+00 -0.65346468842E+03  0.65346468842E+03  0.00000000000E+00 0. -1.
          2    1    1    2  501    0  0.11433868001E+03  0.68654907017E+02 -0.26775861738E+03  0.29913459711E+03  0.00000000000E+00 0. -1.
          1    1    1    2  502    0 -0.14091896053E+03 -0.49516006334E+02 -0.23635420576E+03  0.27959488353E+03  0.00000000000E+00 0. -1.
         22    1    1    2    0    0  0.39416548535E+02 -0.45364213650E+02 -0.95215694366E+02  0.11259486947E+03  0.00000000000E+00 0. -1.
         22    1    1    2    0    0 -0.12836268017E+02  0.26225312968E+02  0.18050924072E+02  0.34327433297E+02  0.00000000000E+00 0. -1.
</event>
<event>
 6    1  0.4069520E-005  0.1161424E+03  0.7818608E-02  0.1256405E+00
          2   -1    0    0  502    0  0.00000000000E+00  0.00000000000E+00  0.87040592207E+02  0.87040592207E+02  0.00000000000E+00 0.  1.
          1   -1    0    0  501    0 -0.00000000000E+00 -0.00000000000E+00 -0.41436630206E+03  0.41436630206E+03  0.00000000000E+00 0. -1.
          2    1    1    2  501    0 -0.85717342724E+02 -0.97826179421E+01 -0.20412125688E+01  0.86297908470E+02  0.00000000000E+00 0.  1.
          1    1    1    2  502    0  0.27921511041E+02  0.68664761610E+02 -0.22022682619E+03  0.23236676879E+03  0.00000000000E+00 0. -1.
         22    1    1    2    0    0  0.79856841885E+02 -0.20477181563E+02 -0.11077414954E+03  0.13808454789E+03  0.00000000000E+00 0. -1.
         22    1    1    2    0    0 -0.22061010201E+02 -0.38404962106E+02  0.57164784351E+01  0.44657669119E+02  0.00000000000E+00 0.  1.
</event>
<event>
 6    1  0.4069520E-005  0.6979756E+02  0.7818608E-02  0.1373733E+00
          2   -1    0    0  502    0  0.00000000000E+00  0.00000000000E+00  0.35727170900E+03  0.35727170900E+03  0.00000000000E+00 0. -1.
          1   -1    0    0  501    0 -0.00000000000E+00 -0.00000000000E+00 -0.11056866167E+03  0.11056866167E+03  0.00000000000E+00 0.  1.
          2    1    1    2  501    0 -0.32052885564E+02 -0.75460325136E+01  0.65323685668E+02  0.73154042875E+02  0.00000000000E+00 0. -1.
          1    1    1    2  502    0  0.55126912185E+02 -0.29773016294E+02 -0.78746241399E+02  0.10062991345E+03  0.00000000000E+00 0.  1.
         22    1    1    2    0    0 -0.77503691503E+02  0.23010701491E+02  0.15289892096E+03  0.17295778274E+03  0.00000000000E+00 0. -1.
         22    1    1    2    0    0  0.54429664883E+02  0.14308347316E+02  0.10722668211E+03  0.12109863161E+03  0.00000000000E+00 0. -1.
</event>
<event>
 6    1  0.4069520E-005  0.1279309E+03  0.7818608E-02  0.1294830E+00
          2   -1    0    0  502    0  0.00000000000E+00  0.00000000000E+00  0.49485734400E+02  0.49485734400E+02  0.00000000000E+00 0.  1.
          1   -1    0    0  501    0 -0.00000000000E+00 -0.00000000000E+00 -0.74622671910E+03  0.74622671910E+03  0.00000000000E+00 0.  1.
          2    1    1    2  501    0 -0.62008214144E+01  0.10731065470E+03 -0.37137161488E+03  0.38661467010E+03  0.00000000000E+00 0.  1.
          1    1    1    2  502    0 -0.23593293887E+02 -0.46018902877E+02 -0.23452733561E+03  0.24016130848E+03  0.00000000000E+00 0.  1.
         22    1    1    2    0    0  0.15038895305E+02 -0.33082366930E+02  0.28017927269E+02  0.45886987503E+02  0.00000000000E+00 0.  1.
         22    1    1    2    0    0  0.14755219996E+02 -0.28209384889E+02 -0.11885996147E+03  0.12304948742E+03  0.00000000000E+00 0.  1.
</event>
<event>
 6    1  0.4069520E-005  0.1607388E+03  0.7818608E-02  0.1224247E+00
          2   -1    0    0  502    0  0.00000000000E+00  0.00000000000E+00  0.83087492849E+02  0.83087492849E+02  0.00000000000E+00 0. -1.
          1   -1    0    0  501    0 -0.00000000000E+00 -0.00000000000E+00 -0.57844569294E+03  0.57844569294E+03  0.00000000000E+00 0. -1.
          2    1    1    2  501    0 -0.79250915432E+02 -0.91598628005E+02 -0.30188735832E+03  0.32527986929E+03  0.00000000000E+00 0. -1.
          1    1    1    2  502    0  0.75200523715E+02  0.65215055972E+02  0.48292546666E+01  0.99656630453E+02  0.00000000000E+00 0. -1.
         22    1    1    2    0    0 -0.50690833837E+02 -0.22688912801E+02 -0.85764457896E+02  0.10217577813E+03  0.00000000000E+00 0.  1.
         22    1    1    2    0    0  0.54741225554E+02  0.49072484833E+02 -0.11253563854E+03  0.13442090792E+03  0.00000000000E+00 0. -1.
</event>
<event>
 6    1  0.4069520E-005  0.1346753E+03  0.7818608E-02  0.1350912E+00
          2   -1    0    0  502    0  0.00000000000E+00  0.00000000000E+00  0.38012281997E+02  0.38012281997E+02  0.00000000000E+00 0. -1.
          1   -1    0    0  501    0 -0.00000000000E+00 -0.00000000000E+00 -0.78478924760E+03  0.78478924760E+03  0.00000000000E+00 0.  1.
          2    1    1    2  501    0  0.17342355150E+02 -0.28548502825E+02 -0.44838004158E+02  0.55912618545E+02  0.00000000000E+00 0. -1.
          1    1    1    2  502    0 -0.78975685394E+02  0.10628718045E+03 -0.45389192889E+03  0.47281286650E+03  0.00000000000E+00 0.  1.
         22    1    1    2    0    0  0.50182751521E+02 -0.76895637264E+02 -0.26105090690E+03  0.27672879065E+03  0.00000000000E+00 0. -1.
         22    1    1    2    0    0  0.11450578723E+02 -0.84304036127E+00  0.13003874346E+02  0.17347253908E+02  0.00000000000E+00 0. -1.
</event>
<event>
 6    1  0.4069520E-005  0.1429558E+03  0.7818608E-02  0.1250898E+00
          2   -1    0    0  502    0  0.00000000000E+00  0.00000000000E+00  0.48798191311E+03  0.48798191311E+03  0.00000000000E+00 0. -1.
          1   -1    0    0  501    0 -0.00000000000E+00 -0.00000000000E+00 -0.13689401958E+03  0.13689401958E+03  0.00000000000E+00 0. -1.
          2    1    1    2  501    0  0.11813855515E+03 -0.53445733534E+01 -0.43184550388E+02  0.12589753003E+03  0.00000000000E+00 0. -1.
          1    1    1    2  502    0 -0.14039063898E+03 -0.66119528571E+02  0.16022958907E+03  0.22305794042E+03  0.00000000000E+00 0. -1.
         22    1    1    2    0    0  0.20721668270E+02  0.10795480625E+02 -0.92822597268E+01  0.25141405757E+02  0.00000000000E+00 0.  1.
         22    1    1    2    0    0  0.15304155678E+01  0.60668621299E+02  0.24332511458E+03  0.25077905647E+03  0.00000000000E+00 0. -1.
</event>
<event>
 6    1  0.4069520E-005  0.8654584E+02  0.7818608E-02  0.1323998E+00
          2   -1    0    0  502    0  0.00000000000E+00  0.00000000000E+00  0.62862564601E+02  0.62862564601E+02  0.00000000000E+00 0. -1.
          1   -1    0    0  501    0 -0.00000000000E+00 -0.00000000000E+00 -0.89978019767E+03  0.89978019767E+03  0.00000000000E+00 0. -1.
          2    1    1    2  501    0  0.32629802042E+02  0.44098335250E+02 -0.67074755794E+03  0.67298711253E+03  0.00000000000E+00 0. -1.
          1    1    1    2  502    0 -0.79203976092E+02  0.16105766818E+02 -0.94361232583E+02  0.12424454824E+03  0.00000000000E+00 0. -1.
         22    1    1    2    0    0 -0.93188187793E+01 -0.19585393530E+02 -0.91123148469E+02  0.93668864679E+02  0.00000000000E+00 0.  1.
         22    1    1    2    0    0  0.55892992830E+02 -0.40618708537E+02  0.19314305921E+02  0.71742236820E+02  0.00000000000E+00 0. -1.
</event>
<event>
 6    1  0.4069520E-005  0.9714529E+02  0.7818608E-02  0.1304360E+00
          2   -1    0    0  502    0  0.00000000000E+00  0.00000000000E+00  0.29358540728E+03  0.29358540728E+03  0.00000000000E+00 0.  1.
          1   -1    0    0  501    0 -0.00000000000E+00 -0.00000000000E+00 -0.88898123784E+03  0.88898123784E+03  0.00000000000E+00 0. -1.
          2    1    1    2  501    0 -0.12982942561E+02  0.69040508470E+02  0.70400226385E+02  0.99455218478E+02  0.00000000000E+00 0.  1.
          1    1    1    2  502    0  0.11952190475E+02 -0.20244977018E+02 -0.85165388460E+03  0.85197831727E+03  0.00000000000E+00 0. -1.
         22    1    1    2    0    0 -0.17826263522E+02 -0.64675395737E+02  0.19391917468E+03  0.20519583035E+03  0.00000000000E+00 0.  1.
         22    1    1    2    0    0  0.18857015607E+02  0.15879864285E+02 -0.80613470207E+01  0.25937279023E+02  0.00000000000E+00 0.  1.
</event>
<event>
 6    1  0.4069520E-005  0.8484941E+02  0.7818608E-02  0.1403618E+00
          2   -1    0    0  502    0  0.00000000000E+00  0.00000000000E+00  0.15400714988E+03  0.15400714988E+03  0.00000000000E+00 0.  1.
          1   -1    0    0  501    0 -0.00000000000E+00 -0.00000000000E+00 -0.14416345761E+03  0.14416345761E+03  0.00000000000E+00 0. -1.
          2    1    1    2  501    0  0.11841789406E+02  0.20350619342E+02  0.16258077955E+02  0.28612947817E+02  0.00000000000E+00 0.  1.
          1    1    1    2  502    0 -0.36569393500E+02  0.23719240079E+02 -0.95578647307E+02  0.10504856359E+03  0.00000000000E+00 0. -1.
         22    1    1    2    0    0  0.55304647405E+01 -0.46575744293E+02 -0.21904443726E+02  0.51765728544E+02  0.00000000000E+00 0. -1.
         22    1    1    2    0    0  0.19197139354E+02  0.25058848719E+01  0.11106870535E+03  0.11274336755E+03  0.00000000000E+00 0.  1.
</event>
<event>
 6    1  0.4069520E-005  0.9290491E+02  0.7818608E-02  0.1418239E+00
          2   -1    0    0  502    0  0.00000000000E+00  0.00000000000E+00  0.22714350015E+02  0.22714350015E+02  0.00000000000E+00 0. -1.
          1   -1    0    0  501    0 -0.00000000000E+00 -0.00000000000E+00 -0.15257365658E+04  0.15257365658E+04  0.00000000000E+00 0. -1.
          2    1    1    2  501    0  0.48883055592E+02 -0.37818196431E+01 -0.62572868545E+03  0.62764659091E+03  0.00000000000E+00 0. -1.
          1    1    1    2  502    0 -0.27707376937E+02 -0.26668344923E+02 -0.70088475151E+03  0.70193898186E+03  0.00000000000E+00 0. -1.
         22    1    1    2    0    0 -0.27323740001E+02  0.20445428400E+02 -0.19440457715E+03  0.19737715654E+03  0.00000000000E+00 0. -1.
         22    1    1    2    0    0  0.61480613456E+01  0.10004736165E+02  0.17995798293E+02  0.21488186528E+02  0.00000000000E+00 0. -1.
</event>
<event>
 6    1  0.4069520E-005  0.6478196E+02  0.7818608E-02  0.1447835E+00
          2   -1    0    0  502    0  0.00000000000E+00  0.00000000000E+00  0.10896064342E+03  0.10896064342E+03  0.00000000000E+00 0.  1.
          1   -1    0    0  501    0 -0.00000000000E+00 -0.00000000000E+00 -0.43887612495E+03  0.43887612495E+03  0.00000000000E+00 0.  1.
          2    1    1    2  501    0 -0.54917298150E+01  0.48521077897E+02 -0.16137594401E+03  0.16860204447E+03  0.00000000000E+00 0.  1.
          1    1    1    2  502    0 -0.18774062620E+02 -0.16142025358E+02 -0.23487497927E+03  0.23617638810E+03  0.00000000000E+00 0.  1.
         22    1    1    2    0    0  0.13360494734E+02 -0.17673812258E+02  0.10124428393E+03  0.10364010560E+03  0.00000000000E+00 0.  1.
         22    1    1    2    0    0  0.10905297701E+02 -0.14705240281E+02 -0.34908842185E+02  0.39418230203E+02  0.00000000000E+00 0.  1.
</event>
<event>
 6    1  0.4069520E-005  0.1242897E+03  0.7818608E-02  0.1262286E+00
          2   -1    0    0  502    0  0.00000000000E+00  0.00000000000E+00  0.19616167278E+02  0.19616167278E+02  0.00000000000E+00 0. -1.
          1   -1    0    0  501    0 -0.00000000000E+00 -0.00000000000E+00 -0.84899118599E+03  0.84899118599E+03  0.00000000000E+00 0. -1.
          2    1    1    2  501    0  0.36374453852E+02 -0.80697050725E+01 -0.29467371438E+03  0.29701989660E+03  0.00000000000E+00 0. -1.
          1    1    1    2  502    0  0.78680949798E+01  0.33487306956E+02 -0.27647089989E+03  0.27860270123E+03  0.00000000000E+00 0. -1.
         22    1    1    2    0    0  0.11438266856E+02 -0.67008939359E+02 -0.11073938386E+03  0.12993938218E+03  0.00000000000E+00 0. -1.
         22    1    1    2    0    0 -0.55680815688E+02  0.41591337476E+02 -0.14749102059E+03  0.16304537326E+03  0.00000000000E+00 0. -1.
</event>
<event>
 6    1  0.4069520E-005  0.1383486E+03  0.7818608E-02  0.1302986E+00
          2   -1    0    0  502    0  0.00000000000E+00  0.00000000000E+00  0.15356992247E+03  0.15356992247E+03  0.00000000000E+00 0.  1.
          1   -1    0    0  501    0 -0.00000000000E+00 -0.00000000000E+00 -0.47580227914E+03  0.47580227914E+03  0.00000000000E+00 0. -1.
          2    1    1    2  501    0 -0.17148335573E+02  0.13635570924E+02 -0.86735770734E+02  0.89459980618E+02  0.00000000000E+00 0.  1.
          1    1    1    2  502    0  0.60956890830E+02  0.94563242082E+01 -0.35568104597E+03  0.36099054152E+03  0.00000000000E+00 0. -1.
         22    1    1    2    0    0  0.24680836371E+02  0.13134569886E+01  0.10064335347E+03  0.10363374668E+03  0.00000000000E+00 0. -1.
         22    1    1    2    0    0 -0.68489391628E+02 -0.24405352121E+02  0.19541106558E+02  0.75287932786E+02  0.00000000000E+00 0.  1.
</event>
<event>
 6    1  0.4069520E-005  0.5850325E+02  0.7818608E-02  0.1407567E+00
          2   -1    0    0  502    0  0.00000000000E+00  0.00000000000E+00  0.24986772104E+03  0.24986772104E+03  0.00000000000E+00 0. -1.
          1   -1    0    0  501    0 -0.00000000000E+00 -0.00000000000E+00 -0.32113940614E+02  0.32113940614E+02  0.00000000000E+00 0. -1.
          2    1    1    2  501    0  0.17941673632E+02 -0.14850800417E+02  0.14907525540E+02  0.27652924682E+02  0.00000000000E+00 0. -1.
          1    1    1    2  502    0  0.76009456212E+01  0.20971153307E+02  0.21230668587E+02  0.30794560137E+02  0.00000000000E+00 0. -1.
         22    1    1    2    0    0  0.29914190307E+02 -0.14492447602E+02 -0.22521826497E+00  0.33240645940E+02  0.00000000000E+00 0. -1.
         22    1    1    2    0    0 -0.55456809560E+02  0.83720947120E+01  0.18184080456E+03  0.19029353089E+03  0.00000000000E+00 0.  1.
</event>
<event>
 6    1  0.4069520E-005  0.1859386E+03  0.7818608E-02  0.1230339E+00
          2   -1    0    0  502    0  0.00000000000E+00  0.00000000000E+00  0.32104603781E+03  0.32104603781E+03  0.00000000000E+00 0. -1.
          1   -1    0    0  501    0 -0.00000000000E+00 -0.00000000000E+00 -0.63010229049E+02  0.63010229049E+02  0.00000000000E+00 0.  1.
          2    1    1    2  501    0  0.32260089871E+02  0.69967929581E+02  0.93088954989E+02  0.12083781738E+03  0.00000000000E+00 0. -1.
          1    1    1    2  502    0  0.13392670498E+02  0.25971879718E+02 -0.25329520444E+01  0.29331178040E+02  0.00000000000E+00 0.  1.
         22    1    1    2    0    0 -0.79512439704E+02 -0.70733676562E+02  0.69241668127E+02  0.12696412750E+03  0.00000000000E+00 0. -1.
         22    1    1    2    0    0  0.33859679335E+02 -0.25206132737E+02  0.98238137688E+02  0.10692314393E+03  0.00000000000E+00 0. -1.
</event>
<event>
 6    1  0.4069520E-005  0.1040478E+03  0.7818608E-02  0.1284447E+00
          2   -1    0    0  502    0  0.00000000000E+00  0.00000000000E+00  0.58032331327E+02  0.58032331327E+02  0.00000000000E+00 0.  1.
          1   -1    0    0  501    0 -0.00000000000E+00 -0.00000000000E+00 -0.10762802186E+04  0.10762802186E+04  0.00000000000E+00 0.  1.
          2    1    1    2  501    0 -0.40502623691E+02  0.30857914993E+02 -0.85610895815E+02  0.99608729165E+02  0.00000000000E+00 0.  1.
          1    1    1    2  502    0  0.29333376349E+02 -0.11812444883E+02 -0.90383322428E+03  0.90438624388E+03  0.00000000000E+00 0.  1.
         22    1    1    2    0    0  0.41671310235E+02 -0.61679182993E+02 -0.20803940857E+02  0.77289220895E+02  0.00000000000E+00 0. -1.
         22    1    1    2    0    0 -0.30502062892E+02  0.42633712884E+02 -0.79998263031E+01  0.53028355960E+02  0.00000000000E+00 0.  1.
</event>
<event>
 6    1  0.4069520E-005  0.4717065E+02  0.7818608E-02  0.1465330E+00
          2   -1    0    0  502    0  0.00000000000E+00  0.00000000000E+00  0.10833187750E+03  0.10833187750E+03  0.00000000000E+00 0.  1.
          1   -1    0    0  501    0 -0.00000000000E+00 -0.00000000000E+00 -0.22708635394E+03  0.22708635394E+03  0.00000000000E+00 0.  1.
          2    1    1    2  501    0 -0.17757691788E+02 -0.20632761177E+02 -0.32246911642E+02  0.42200826555E+02  0.00000000000E+00 0.  1.
          1    1    1    2  502    0 -0.11757384338E+02  0.32987654939E+02 -0.14790837365E+03  0.15199772518E+03  0.00000000000E+00 0.  1.
         22    1    1    2    0    0 -0.15318062891E+02 -0.40458678305E+01 -0.32876558860E+02  0.36494934165E+02  0.00000000000E+00 0.  1.
         22    1    1    2    0    0  0.44833139017E+02 -0.83090259313E+01  0.94277367715E+02  0.10472474554E+03  0.00000000000E+00 0.  1.
</event>
<event>
 6    1  0.4069520E-005  0.5489314E+03  0.7818608E-02  0.1125988E+00
          2   -1    0    0  502    0  0.00000000000E+00  0.00000000000E+00  0.10127065743E+04  0.10127065743E+04  0.00000000000E+00 0. -1.
          1   -1    0    0  501    0 -0.00000000000E+00 -0.00000000000E+00 -0.32424187591E+03  0.32424187591E+03  0.00000000000E+00 0. -1.
          2    1    1    2  501    0 -0.37236492186E+02 -0.34820375073E+03  0.91570079597E+02  0.36196337916E+03  0.00000000000E+00 0. -1.
          1    1    1    2  502    0  0.11773795138E+02  0.53942712607E+03  0.38877178515E+03  0.66502913284E+03  0.00000000000E+00 0. -1.
         22    1    1    2    0    0 -0.14809984245E+02 -0.87332443633E+01  0.83691665142E+02  0.85439452273E+02  0.00000000000E+00 0. -1.
         22    1    1    2    0    0  0.40272681292E+02 -0.18249013098E+03  0.12443116851E+03  0.22451648594E+03  0.00000000000E+00 0. -1.
</event>
<event>
 6    1  0.4069520E-005  0.2032332E+03  0.7818608E-02  0.1193997E+00
          2   -1    0    0  502    0  0.00000000000E+00  0.00000000000E+00  0.15176922641E+03  0.15176922641E+03  0.00000000000E+00 0.  1.
          1   -1    0    0  501    0 -0.00000000000E+00 -0.00000000000E+00 -0.57143605305E+03  0.57143605305E+03  0.00000000000E+00 0.  1.
          2    1    1    2  501    0 -0.87080315168E+02  0.16966256479E+03 -0.36832319187E+03  0.41476540459E+03  0.00000000000E+00 0.  1.
          1    1    1    2  502    0  0.10163099082E+03 -0.12344983083E+03  0.93375867930E+01  0.16017462206E+03  0.00000000000E+00 0.  1.
         22    1    1    2    0    0 -0.10543705422E+02 -0.68658002601E+02  0.13409799107E+02  0.70745415098E+02  0.00000000000E+00 0. -1.
         22    1    1    2    0    0 -0.40069702273E+01  0.22445268643E+02 -0.74091020665E+02  0.77519837707E+02  0.00000000000E+00 0.  1.
</event>
<event>
 6    1  0.4069520E-005  0.5279105E+02  0.7818608E-02  0.1524068E+00
          2   -1    0    0  502    0  0.00000000000E+00  0.00000000000E+00  0.34871306291E+02  0.34871306291E+02  0.00000000000E+00 0. -1.
          1   -1    0    0  501    0 -0.00000000000E+00 -0.00000000000E+00 -0.17484395720E+04  0.17484395720E+04  0.00000000000E+00 0.  1.
          2    1    1    2  501    0 -0.20583546295E+02  0.95320339130E+00 -0.29213490753E+03  0.29286070951E+03  0.00000000000E+00 0. -1.
          1    1    1    2  502    0  0.19793633356E+02 -0.14067466486E+02 -0.13385661641E+04  0.13387864121E+04  0.00000000000E+00 0.  1.
         22    1    1    2    0    0 -0.52618992250E+01 -0.13038198145E+02  0.31337313704E+02  0.34346898324E+02  0.00000000000E+00 0. -1.
         22    1    1    2    0    0  0.60518121636E+01  0.26152461241E+02 -0.11420450779E+03  0.11731685838E+03  0.00000000000E+00 0. -1.
</event>
<event>
 6    1  0.4069520E-005  0.9470697E+02  0.7818608E-02  0.1350340E+00
          2   -1    0    0  502    0  0.00000000000E+00  0.00000000000E+00  0.22952265604E+03  0.22952265604E+03  0.00000000000E+00 0.  1.
          1   -1    0    0  501    0 -0.00000000000E+00 -0.00000000000E+00 -0.38880840050E+03  0.38880840050E+03  0.00000000000E+00 0.  1.
          2    1    1    2  501    0  0.44575654076E+02  0.75830189334E+02 -0.57685044887E+02  0.10518921501E+03  0.00000000000E+00 0.  1.
          1    1    1    2  502    0 -0.70306571460E+02 -0.56371452152E+02 -0.28051463596E+03  0.29463403673E+03  0.00000000000E+00 0.  1.
         22    1    1    2    0    0  0.17637147119E+02  0.12882610605E+02 -0.11852710424E+02  0.24849896557E+02  0.00000000000E+00 0.  1.
         22    1    1    2    0    0  0.80937702651E+01 -0.32341347787E+02  0.19076664681E+03  0.19365790825E+03  0.00000000000E+00 0.  1.
</event>
<event>
 6    1  0.4069520E-005  0.1641020E+03  0.7818608E-02  0.1225640E+00
          2   -1    0    0  502    0  0.00000000000E+00  0.00000000000E+00  0.31308843899E+03  0.31308843899E+03  0.00000000000E+00 0. -1.
          1   -1    0    0  501    0 -0.00000000000E+00 -0.00000000000E+00 -0.20551438214E+03  0.20551438214E+03  0.00000000000E+00 0. -1.
          2    1    1    2  501    0  0.36656728439E+02  0.39758757655E+01 -0.36604085958E+02  0.51955581382E+02  0.00000000000E+00 0. -1.
          1    1    1    2  502    0 -0.16528027717E+02  0.11831039034E+03 -0.10758371304E+03  0.16076311603E+03  0.00000000000E+00 0. -1.
         22    1    1    2    0    0  0.26323654249E+02 -0.61735693796E+02  0.20655158903E+03  0.21718146697E+03  0.00000000000E+00 0. -1.
         22    1    1    2    0    0 -0.46452354971E+02 -0.60550572314E+02  0.45210266805E+02  0.88702656750E+02  0.00000000000E+00 0. -1.
</event>
<event>
 6    1  0.4069520E-005  0.1445604E+03  0.7818608E-02  0.1232145E+00
          2   -1    0    0  502    0  0.00000000000E+00  0.00000000000E+00  0.28618477625E+03  0.28618477625E+03  0.00000000000E+00 0. -1.
          1   -1    0    0  501    0 -0.00000000000E+00 -0.00000000000E+00 -0.55489538354E+03  0.55489538354E+03  0.00000000000E+00 0. -1.
          2    1    1    2  501    0 -0.98199629723E+02 -0.11720023998E+03  0.40304428438E+02  0.15812498373E+03  0.00000000000E+00 0. -1.
          1    1    1    2  502    0  0.11397391438E+03  0.46715516015E+02 -0.45793431340E+03  0.47421116392E+03  0.00000000000E+00 0. -1.
         22    1    1    2    0    0 -0.53222845751E+02 -0.67268420764E+01  0.28127500316E+02  0.60572914642E+02  0.00000000000E+00 0.  1.
         22    1    1    2    0    0  0.37448561094E+02  0.77211566040E+02  0.12079177735E+03  0.14817109750E+03  0.00000000000E+00 0.  1.
</event>
<event>
 6    1  0.4069520E-005  0.7410920E+02  0.7818608E-02  0.1362040E+00
          2   -1    0    0  502    0  0.00000000000E+00  0.00000000000E+00  0.12025319551E+03  0.12025319551E+03  0.00000000000E+00 0. -1.
          1   -1    0    0  501    0 -0.00000000000E+00 -0.00000000000E+00 -0.20835327100E+03  0.20835327100E+03  0.00000000000E+00 0. -1.
          2    1    1    2  501    0 -0.51339343258E+02  0.31278028122E+00 -0.16618172768E+02  0.53962854482E+02  0.00000000000E+00 0. -1.
          1    1    1    2  502    0  0.17283203727E+02 -0.10605732757E+02 -0.13098744310E+03  0.13254773083E+03  0.00000000000E+00 0. -1.
         22    1    1    2    0    0  0.43946250003E+02  0.35210488528E+02  0.87038937959E+02  0.10366690944E+03  0.00000000000E+00 0. -1.
         22    1    1    2    0    0 -0.98901104710E+01 -0.24917536053E+02 -0.27533397579E+02  0.38428971757E+02  0.00000000000E+00 0. -1.
</event>
<event>
 6    1  0.4069520E-005  0.1388324E+03  0.7818608E-02  0.1221108E+00
          2   -1    0    0  502    0  0.00000000000E+00  0.00000000000E+00  0.43420843662E+02  0.43420843662E+02  0.00000000000E+00 0.  1.
          1   -1    0    0  501    0 -0.00000000000E+00 -0.00000000000E+00 -0.90396385422E+03  0.90396385422E+03  0.00000000000E+00 0.  1.
          2    1    1    2  501    0  0.28711082711E+02 -0.87969444054E+02 -0.21099114763E+03  0.23039143590E+03  0.00000000000E+00 0.  1.
          1    1    1    2  502    0 -0.63486422052E+02 -0.21635197813E+02 -0.45891001176E+03  0.46378551774E+03  0.00000000000E+00 0.  1.
         22    1    1    2    0    0 -0.16344060907E+02 -0.19761504973E+02 -0.17206072217E+02  0.30881941760E+02  0.00000000000E+00 0.  1.
         22    1    1    2    0    0  0.51119400249E+02  0.12936614684E+03 -0.17343577895E+03  0.22232580248E+03  0.00000000000E+00 0.  1.
</event>
<event>
 6    1  0.4069520E-005  0.7471346E+03  0.7818608E-02  0.1103148E+00
          2   -1    0    0  502    0  0.00000000000E+00  0.00000000000E+00  0.21531930690E+04  0.21531930690E+04  0.00000000000E+00 0. -1.
          1   -1    0    0  501    0 -0.00000000000E+00 -0.00000000000E+00 -0.12014708512E+04  0.12014708512E+04  0.00000000000E+00 0.  1.
          2    1    1    2  501    0  0.27897622955E+03  0.22474432023E+03  0.16365643433E+04  0.16753150736E+04  0.00000000000E+00 0. -1.
          1    1    1    2  502    0 -0.34635409632E+03 -0.48294127750E+03 -0.10521336975E+04  0.12083785645E+04  0.00000000000E+00 0.  1.
         22    1    1    2    0    0 -0.91060246954E+01 -0.80319201810E+01  0.42003899081E+02  0.43723665966E+02  0.00000000000E+00 0.  1.
         22    1    1    2    0    0  0.76483891466E+02  0.26622887745E+03  0.32528767302E+03  0.42724661620E+03  0.00000000000E+00 0. -1.
</event>
<event>
 6    1  0.4069520E-005  0.1472594E+03  0.7818608E-02  0.1207847E+00
          2   -1    0    0  502    0  0.00000000000E+00  0.00000000000E+00  0.68469200755E+03  0.68469200755E+03  0.00000000000E+00 0. -1.
          1   -1    0    0  501    0 -0.00000000000E+00 -0.00000000000E+00 -0.96363633478E+03  0.96363633478E+03  0.00000000000E+00 0. -1.
          2    1    1    2  501    0 -0.25350327251E+02 -0.11619898741E+03  0.36685345984E+03  0.38565049561E+03  0.00000000000E+00 0. -1.
          1    1    1    2  502    0  0.31256577625E+02  0.55673668475E+01 -0.93139338264E+03  0.93193433376E+03  0.00000000000E+00 0. -1.
         22    1    1    2    0    0 -0.27164670772E+02  0.13154701023E+03  0.20786288855E+03  0.24748639493E+03  0.00000000000E+00 0. -1.
         22    1    1    2    0    0  0.21258420398E+02 -0.20915389665E+02  0.77732707013E+02  0.83257118028E+02  0.00000000000E+00 0.  1.
</event>
<event>
 6    1  0.4069520E-005  0.4746729E+03  0.7818608E-02  0.1086508E+00
          2   -1    0    0  502    0  0.00000000000E+00  0.00000000000E+00  0.58747898131E+03  0.58747898131E+03  0.00000000000E+00 0.  1.
          1   -1    0    0  501    0 -0.00000000000E+00 -0.00000000000E+00 -0.87390484686E+03  0.87390484686E+03  0.00000000000E+00 0.  1.
          2    1    1    2  501    0 -0.97897171924E+02 -0.24956853518E+03  0.99637588833E+01  0.26826775154E+03  0.00000000000E+00 0.  1.
          1    1    1    2  502    0  0.21994893638E+02  0.90357720516E+02 -0.71514796201E+03  0.72116912064E+03  0.00000000000E+00 0.  1.
         22    1    1    2    0    0  0.47856508773E+01  0.14177863473E+03  0.24026334879E+03  0.27901713297E+03  0.00000000000E+00 0.  1.
         22    1    1    2    0    0  0.71116627410E+02  0.17432179936E+02  0.17849498879E+03  0.19292982303E+03  0.00000000000E+00 0.  1.
</event>
<event>
 6    1  0.4069520E-005  0.7839770E+02  0.7818608E-02  0.1438130E+00
          2   -1    0    0  502    0  0.00000000000E+00  0.00000000000E+00  0.68086848801E+02  0.68086848801E+02  0.00000000000E+00 0. -1.
          1   -1    0    0  501    0 -0.00000000000E+00 -0.00000000000E+00 -0.81990694376E+03  0.81990694376E+03  0.00000000000E+00 0.  1.
          2    1    1    2  501    0 -0.48779409314E+02 -0.10634666754E+01 -0.76210394463E+02  0.90490805934E+02  0.00000000000E+00 0. -1.
          1    1    1    2  502    0  0.24593135656E+02 -0.31464703208E+02 -0.66012748166E+03  0.66133436468E+03  0.00000000000E+00 0.  1.
         22    1    1    2    0    0  0.14416326535E+02 -0.88022349352E+00  0.55372860876E+02  0.57225509922E+02  0.00000000000E+00 0. -1.
         22    1    1    2    0    0  0.97699471229E+01  0.33408393377E+02 -0.70855079716E+02  0.78943112026E+02  0.00000000000E+00 0. -1.
</event>
<event>
 6    1  0.4069520E-005  0.3264201E+03  0.7818608E-02  0.1133491E+00
          2   -1    0    0  502    0  0.00000000000E+00  0.00000000000E+00  0.18252972620E+04  0.18252972620E+04  0.00000000000E+00 0. -1.
          1   -1    0    0  501    0 -0.00000000000E+00 -0.00000000000E+00 -0.59160344931E+02  0.59160344931E+02  0.00000000000E+00 0. -1.
          2    1    1    2  501    0  0.17547756263E+03  0.75763085600E+02  0.48940382450E+03  0.52540320094E+03  0.00000000000E+00 0. -1.
          1    1    1    2  502    0 -0.49289911597E+02 -0.16674349371E+03  0.10252055114E+04  0.10398457716E+04  0.00000000000E+00 0. -1.
         22    1    1    2    0    0 -0.57784940011E+02  0.35846278711E+02  0.21242503820E+03  0.22304360974E+03  0.00000000000E+00 0. -1.
         22    1    1    2    0    0 -0.68402711021E+02  0.55134129395E+02  0.39102542937E+02  0.96165024636E+02  0.00000000000E+00 0. -1.
</event>
<event>
 6    1  0.4069520E-005  0.1078924E+03  0.7818608E-02  0.1399794E+00
          2   -1    0    0  502    0  0.00000000000E+00  0.00000000000E+00  0.53693377687E+02  0.53693377687E+02  0.00000000000E+00 0. -1.
          1   -1    0    0  501    0 -0.00000000000E+00 -0.00000000000E+00 -0.73935732126E+03  0.73935732126E+03  0.00000000000E+00 0. -1.
          2    1    1    2  501    0  0.59373981694E+01 -0.54293649389E+02 -0.62161526724E+03  0.62401009089E+03  0.00000000000E+00 0. -1.
          1    1    1    2  502    0  0.53706721947E+01  0.23877151595E+02  0.67666498138E+01  0.25391928595E+02  0.00000000000E+00 0. -1.
         22    1    1    2    0    0 -0.20918837257E+02  0.27644341139E+02 -0.10366598809E+03  0.10930894033E+03  0.00000000000E+00 0.  1.
         22    1    1    2    0    0  0.96107668931E+01  0.27721566546E+01  0.32850661952E+02  0.34339739129E+02  0.00000000000E+00 0. -1.
</event>
<event>
 6    1  0.4069520E-005  0.1187451E+03  0.7818608E-02  0.1283023E+00
          2   -1    0    0  502    0  0.00000000000E+00  0.00000000000E+00  0.62829838036E+02  0.62829838036E+02  0.00000000000E+00 0. -1.
          1   -1    0    0  501    0 -0.00000000000E+00 -0.00000000000E+00 -0.12621808361E+04  0.12621808361E+04  0.00000000000E+00 0. -1.
          2    1    1    2  501    0 -0.85309283934E+02  0.12859333199E+02 -0.93709691214E+02  0.12737559658E+03  0.00000000000E+00 0. -1.
          1    1    1    2  502    0  0.83318806665E+02 -0.26165209646E+02 -0.10580936513E+04  0.10616914885E+04  0.00000000000E+00 0. -1.
         22    1    1    2    0    0 -0.52849228337E+02  0.27758323985E+02  0.32828599249E+01  0.59785806472E+02  0.00000000000E+00 0. -1.
         22    1    1    2    0    0  0.54839705606E+02 -0.14452447538E+02 -0.50830515451E+02  0.76157782608E+02  0.00000000000E+00 0.  1.
</event>
<event>
 6    1  0.4069520E-005  0.1404749E+03  0.7818608E-02  0.1252894E+00
          2   -1    0    0  502    0  0.00000000000E+00  0.00000000000E+00  0.61202923289E+03  0.61202923289E+03  0.00000000000E+00 0. -1.
          1   -1    0    0  501    0 -0.00000000000E+00 -0.00000000000E+00 -0.23294841008E+03  0.23294841008E+03  0.00000000000E+00 0.  1.
          2    1    1    2  501    0 -0.80701400891E+02 -0.84264712208E+02  0.19279484713E+03  0.22535108366E+03  0.00000000000E+00 0. -1.
          1    1    1    2  502    0  0.11546243225E+03  0.40033979849E+02 -0.18529991062E+03  0.22196925391E+03  0.00000000000E+00 0.  1.
         22    1    1    2    0    0  0.35644477175E+02  0.50076900116E+02  0.24600787486E+03  0.25357069857E+03  0.00000000000E+00 0. -1.
         22    1    1    2    0    0 -0.70405508539E+02 -0.58461677575E+01  0.12557801145E+03  0.14408660684E+03  0.00000000000E+00 0. -1.
</event>
<event>
 6    1  0.4069520E-005  0.1226186E+03  0.7818608E-02  0.1356184E+00
          2   -1    0    0  502    0  0.00000000000E+00  0.00000000000E+00  0.76942608149E+02  0.76942608149E+02  0.00000000000E+00 0. -1.
          1   -1    0    0  501    0 -0.00000000000E+00 -0.00000000000E+00 -0.24830028056E+04  0.24830028056E+04  0.00000000000E+00 0. -1.
          2    1    1    2  501    0  0.76967158360E+01 -0.26431441197E+02  0.97129090868E+01  0.29192483987E+02  0.00000000000E+00 0. -1.
          1    1    1    2  502    0  0.77601952638E+01 -0.51480404354E+02 -0.23730866822E+04  0.23736576952E+04  0.00000000000E+00 0. -1.
         22    1    1    2    0    0 -0.26690542394E+02  0.69708095006E+02 -0.84665825395E+02  0.11287119009E+03  0.00000000000E+00 0. -1.
         22    1    1    2    0    0  0.11233631294E+02  0.82037505444E+01  0.41979401074E+02  0.44224044473E+02  0.00000000000E+00 0. -1.
</event>
<event>
 6    1  0.4069520E-005  0.4881099E+02  0.7818608E-02  0.1497606E+00
          2   -1    0    0  502    0  0.00000000000E+00  0.00000000000E+00  0.93469364438E+02  0.93469364438E+02  0.00000000000E+00 0. -1.
          1   -1    0    0  501    0 -0.00000000000E+00 -0.00000000000E+00 -0.17282422202E+03  0.17282422202E+03  0.00000000000E+00 0. -1.
          2    1    1    2  501    0 -0.27066438887E+02  0.65346083522E+00 -0.90044255637E+02  0.94026523376E+02  0.00000000000E+00 0. -1.
          1    1    1    2  502    0  0.32380259223E+02 -0.21591252062E+02 -0.20534246815E+02  0.44003620819E+02  0.00000000000E+00 0. -1.
         22    1    1    2    0    0 -0.23990978756E+02  0.36460427427E+01 -0.43232321639E+02  0.49577155260E+02  0.00000000000E+00 0. -1.
         22    1    1    2    0    0  0.18677158420E+02  0.17291748484E+02  0.74455966513E+02  0.78686286998E+02  0.00000000000E+00 0. -1.
</event>
<event>
 6    1  0.4069520E-005  0.9257877E+02  0.7818608E-02  0.1415722E+00
          2   -1    0    0  502    0  0.00000000000E+00  0.00000000000E+00  0.94131000660E+02  0.94131000660E+02  0.00000000000E+00 0. -1.
          1   -1    0    0  501    0 -0.00000000000E+00 -0.00000000000E+00 -0.19027869506E+03  0.19027869506E+03  0.00000000000E+00 0. -1.
          2    1    1    2  501    0 -0.25303726465E+02  0.48258130408E+01  0.17381677937E+02  0.31075549431E+02  0.00000000000E+00 0. -1.
          1    1    1    2  502    0  0.13121834109E+02 -0.33662298165E+02 -0.11588664626E+03  0.12138800447E+03  0.00000000000E+00 0. -1.
         22    1    1    2    0    0  0.23852854184E+02  0.24834679378E+02 -0.59567548976E+02  0.68804162982E+02  0.00000000000E+00 0. -1.
         22    1    1    2    0    0 -0.11670961828E+02  0.40018057458E+01  0.61924822903E+02  0.63141978832E+02  0.00000000000E+00 0. -1.
</event>
<event>
 6    1  0.4069520E-005  0.8281837E+02  0.7818608E-02  0.1356520E+00
          2   -1    0    0  502    0  0.00000000000E+00  0.00000000000E+00  0.11159886335E+03  0.11159886335E+03  0.00000000000E+00 0.  1.
          1   -1    0    0  501    0 -0.00000000000E+00 -0.00000000000E+00 -0.20535572778E+03  0.20535572778E+03  0.00000000000E+00 0.  1.
          2    1    1    2  501    0 -0.80566776406E+01  0.39361387119E+02 -0.43727023608E+02  0.59382501161E+02  0.00000000000E+00 0.  1.
          1    1    1    2  502    0  0.20980181793E+02 -0.10440228692E+03  0.10489954123E+01  0.10649462866E+03  0.00000000000E+00 0.  1.
         22    1    1    2    0    0  0.13571073228E+02  0.28802185551E+02 -0.87600086590E+02  0.93206840370E+02  0.00000000000E+00 0.  1.
         22    1    1    2    0    0 -0.26494577380E+02  0.36238714251E+02  0.36521250356E+02  0.57870620946E+02  0.00000000000E+00 0.  1.
</event>
<event>
 6    1  0.4069520E-005  0.1100708E+03  0.7818608E-02  0.1380809E+00
          2   -1    0    0  502    0  0.00000000000E+00  0.00000000000E+00  0.14246484490E+03  0.14246484490E+03  0.00000000000E+00 0.  1.
          1   -1    0    0  501    0 -0.00000000000E+00 -0.00000000000E+00 -0.13233087898E+03  0.13233087898E+03  0.00000000000E+00 0. -1.
          2    1    1    2  501    0 -0.70189153036E+01  0.37462894355E+02  0.72181178589E+01  0.38792200903E+02  0.00000000000E+00 0.  1.
          1    1    1    2  502    0 -0.52739890943E+02 -0.51827206344E+02 -0.47452744880E+02  0.87859651780E+02  0.00000000000E+00 0. -1.
         22    1    1    2    0    0 -0.10458694757E+02  0.73442012213E+01  0.72942570047E+02  0.74053629977E+02  0.00000000000E+00 0.  1.
         22    1    1    2    0    0  0.70217501004E+02  0.70201107678E+01 -0.22573977102E+02  0.74090241224E+02  0.00000000000E+00 0.  1.
</event>
<event>
 6    1  0.4069520E-005  0.9274758E+02  0.7818608E-02  0.1353867E+00
          2   -1    0    0  502    0  0.00000000000E+00  0.00000000000E+00  0.62811281893E+03  0.62811281893E+03  0.00000000000E+00 0.  1.
          1   -1    0    0  501    0 -0.00000000000E+00 -0.00000000000E+00 -0.47641821719E+02  0.47641821719E+02  0.00000000000E+00 0.  1.
          2    1    1    2  501    0  0.64751740914E+00 -0.22244270086E+02  0.59257297224E+02  0.63298136661E+02  0.00000000000E+00 0.  1.
          1    1    1    2  502    0  0.49982330205E+02  0.38425150156E+02 -0.10810865889E+02  0.63965618253E+02  0.00000000000E+00 0.  1.
         22    1    1    2    0    0 -0.83143732241E+02 -0.84085962553E+01  0.47576481634E+03  0.48304838802E+03  0.00000000000E+00 0.  1.
         22    1    1    2    0    0  0.32513884627E+02 -0.77722838143E+01  0.56259749536E+02  0.65442497714E+02  0.00000000000E+00 0.  1.
</event>
<event>
 6    1  0.4069520E-005  0.1078660E+03  0.7818608E-02  0.1293192E+00
          2   -1    0    0  502    0  0.00000000000E+00  0.00000000000E+00  0.50531041062E+03  0.50531041062E+03  0.00000000000E+00 0. -1.
          1   -1    0    0  501    0 -0.00000000000E+00 -0.00000000000E+00 -0.74000812921E+03  0.74000812921E+03  0.00000000000E+00 0. -1.
          2    1    1    2  501    0 -0.20407152768E+02  0.72562773082E+02  0.89870632657E+02  0.11729679678E+03  0.00000000000E+00 0. -1.
          1    1    1    2  502    0  0.46529325287E+02 -0.57649378353E+02 -0.71457320462E+03  0.71840329460E+03  0.00000000000E+00 0. -1.
         22    1    1    2    0    0 -0.39468872354E+02  0.46148161777E+02  0.22878613553E+03  0.23670771117E+03  0.00000000000E+00 0.  1.
         22    1    1    2    0    0  0.13346699835E+02 -0.61061556505E+02  0.16121871785E+03  0.17291073727E+03  0.00000000000E+00 0. -1.
</event>
<event>
 6    1  0.4069520E-005  0.9008745E+02  0.7818608E-02  0.1365221E+00
          2   -1    0    0  502    0  0.00000000000E+00  0.00000000000E+00  0.22027126439E+03  0.22027126439E+03  0.00000000000E+00 0.  1.
          1   -1    0    0  501    0 -0.00000000000E+00 -0.00000000000E+00 -0.73340712444E+03  0.73340712444E+03  0.00000000000E+00 0.  1.
          2    1    1    2  501    0 -0.17250472150E+02 -0.17932953581E+02  0.31031148435E+02  0.39775643134E+02  0.00000000000E+00 0.  1.
          1    1    1    2  502    0  0.53067593092E+02  0.68461618640E+02 -0.70013558309E+03  0.70547359792E+03  0.00000000000E+00 0.  1.
         22    1    1    2    0    0 -0.65785137276E+02 -0.53727332842E+02  0.50670788843E+02  0.98903182065E+02  0.00000000000E+00 0. -1.
         22    1    1    2    0    0  0.29968016333E+02  0.31986677827E+01  0.10529778576E+03  0.10952596571E+03  0.00000000000E+00 0.  1.
</event>
<event>
 6    1  0.4069520E-005  0.3009301E+03  0.7818608E-02  0.1164625E+00
          2   -1    0    0  502    0  0.00000000000E+00  0.00000000000E+00  0.11172592370E+03  0.11172592370E+03  0.00000000000E+00 0.  1.
          1   -1    0    0  501    0 -0.00000000000E+00 -0.00000000000E+00 -0.49761409258E+03  0.49761409258E+03  0.00000000000E+00 0.  1.
          2    1    1    2  501    0  0.19267261669E+01  0.44022717263E+02 -0.23676454567E+03  0.24083015176E+03  0.00000000000E+00 0.  1.
          1    1    1    2  502    0 -0.11415694693E+02  0.17732927002E+02 -0.21317372409E+03  0.21421440528E+03  0.00000000000E+00 0.  1.
         22    1    1    2    0    0 -0.27160863706E+02  0.29696043379E+02  0.82910386519E+01  0.41089035418E+02  0.00000000000E+00 0. -1.
         22    1    1    2    0    0  0.36649832232E+02 -0.91451687644E+02  0.55759062233E+02  0.11320642383E+03  0.00000000000E+00 0.  1.
</event>
<event>
 6    1  0.4069520E-005  0.9356124E+02  0.7818608E-02  0.1307276E+00
          2   -1    0    0  502    0  0.00000000000E+00  0.00000000000E+00  0.46146862100E+03  0.46146862100E+03  0.00000000000E+00 0.  1.
          1   -1    0    0  501    0 -0.00000000000E+00 -0.00000000000E+00 -0.28363919001E+03  0.28363919001E+03  0.00000000000E+00 0.  1.
          2    1    1    2  501    0 -0.63167482231E+02  0.89678274635E+02  0.53067474695E+02  0.12185434183E+03  0.00000000000E+00 0.  1.
          1    1    1    2  502    0  0.72910871877E+02 -0.45108895274E+02 -0.23015681228E+03  0.24560734091E+03  0.00000000000E+00 0.  1.
         22    1    1    2    0    0  0.13197809431E+02 -0.72694247557E+02  0.31561628678E+03  0.32414854046E+03  0.00000000000E+00 0.  1.
         22    1    1    2    0    0 -0.22941199077E+02  0.28124868195E+02  0.39302481790E+02  0.53497587805E+02  0.00000000000E+00 0.  1.
</event>
<event>
 6    1  0.4069520E-005  0.3753889E+03  0.7818608E-02  0.1089111E+00
          2   -1    0    0  502    0  0.00000000000E+00  0.00000000000E+00  0.20127076460E+04  0.20127076460E+04  0.00000000000E+00 0.  1.
          1   -1    0    0  501    0 -0.00000000000E+00 -0.00000000000E+00 -0.99805481384E+02  0.99805481384E+02  0.00000000000E+00 0. -1.
          2    1    1    2  501    0  0.51697690424E+02 -0.33949083201E+03  0.73551304513E+03  0.81173032207E+03  0.00000000000E+00 0.  1.
          1    1    1    2  502    0 -0.18935446610E+03  0.29949931530E+03  0.65408843307E+03  0.74389961149E+03  0.00000000000E+00 0. -1.
         22    1    1    2    0    0  0.11347074295E+03  0.78813356498E+02  0.32086294804E+03  0.34934250542E+03  0.00000000000E+00 0. -1.
         22    1    1    2    0    0  0.24186032722E+02 -0.38821839791E+02  0.20243773843E+03  0.20754068845E+03  0.00000000000E+00 0.  1.
</event>
<event>
 6    1  0.4069520E-005  0.1416315E+03  0.7818608E-02  0.1289525E+00
          2   -1    0    0  502    0  0.00000000000E+00  0.00000000000E+00  0.54248664550E+03  0.54248664550E+03  0.00000000000E+00 0. -1.
          1   -1    0    0  501    0 -0.00000000000E+00 -0.00000000000E+00 -0.28504962505E+03  0.28504962505E+03  0.00000000000E+00 0. -1.
          2    1    1    2  501    0 -0.66224285910E+02  0.90577524575E+01  0.13984616534E+03  0.15499886736E+03  0.00000000000E+00 0. -1.
          1    1    1    2  502    0  0.11670756250E+03  0.43722747411E+02 -0.24914175409E+03  0.27857485065E+03  0.00000000000E+00 0. -1.
         22    1    1    2    0    0  0.21807671409E+02 -0.19968700865E+02  0.14572490197E+02  0.32964845169E+02  0.00000000000E+00 0. -1.
         22    1    1    2    0    0 -0.72290948000E+02 -0.32811799004E+02  0.35216011900E+03  0.36099770738E+03  0.00000000000E+00 0. -1.
</event>
<event>
 6    1  0.4069520E-005  0.8362205E+02  0.7818608E-02  0.1321076E+00
          2   -1    0    0  502    0  0.00000000000E+00  0.00000000000E+00  0.90817204809E+02  0.90817204809E+02  0.00000000000E+00 0. -1.
          1   -1    0    0  501    0 -0.00000000000E+00 -0.00000000000E+00 -0.13898220453E+04  0.13898220453E+04  0.00000000000E+00 0.  1.
          2    1    1    2  501    0 -0.56543564346E+02 -0.76559129858E+01  0.21621873501E+02  0.61018792894E+02  0.00000000000E+00 0. -1.
          1    1    1    2  502    0 -0.42436758167E+02 -0.31187381650E+02 -0.12309399875E+04  0.12320660632E+04  0.00000000000E+00 0.  1.
         22    1    1    2    0    0  0.11332428239E+03  0.49856634921E+02 -0.10616221935E+03  0.16309044681E+03  0.00000000000E+00 0. -1.
         22    1    1    2    0    0 -0.14343959872E+02 -0.11013340285E+02  0.16475492855E+02  0.24463947226E+02  0.00000000000E+00 0. -1.
</event>
<event>
 6    1  0.4069520E-005  0.3711462E+02  0.7818608E-02  0.1534384E+00
          2   -1    0    0  502    0  0.00000000000E+00  0.00000000000E+00  0.85561950468E+02  0.85561950468E+02  0.00000000000E+00 0.  1.
          1   -1    0    0  501    0 -0.00000000000E+00 -0.00000000000E+00 -0.25098278245E+03  0.25098278245E+03  0.00000000000E+00 0.  1.
          2    1    1    2  501    0  0.35102276793E+02 -0.68785292821E+01 -0.54240431701E+02  0.64973136235E+02  0.00000000000E+00 0.  1.
          1    1    1    2  502    0 -0.20533700430E+02 -0.31662740931E+01 -0.14083929958E+03  0.14236350112E+03  0.00000000000E+00 0.  1.
         22    1    1    2    0    0  0.17049031253E+02 -0.42242306310E+01 -0.44225553737E+02  0.47585850779E+02  0.00000000000E+00 0.  1.
         22    1    1    2    0    0 -0.31617607615E+02  0.14269034006E+02  0.73884453037E+02  0.81622244783E+02  0.00000000000E+00 0.  1.
</event>
<event>
 6    1  0.4069520E-005  0.1211625E+03  0.7818608E-02  0.1246207E+00
          2   -1    0    0  502    0  0.00000000000E+00  0.00000000000E+00  0.99148076890E+03  0.99148076890E+03  0.00000000000E+00 0. -1.
          1   -1    0    0  501    0 -0.00000000000E+00 -0.00000000000E+00 -0.45424287477E+02  0.45424287477E+02  0.00000000000E+00 0. -1.
          2    1    1    2  501    0 -0.18238406693E+02 -0.80934122981E+02  0.14270535936E+03  0.16506905020E+03  0.00000000000E+00 0. -1.
          1    1    1    2  502    0 -0.10160792865E+03  0.66001418045E+02  0.13366218602E+03  0.18040492876E+03  0.00000000000E+00 0. -1.
         22    1    1    2    0    0 -0.59836779550E+01 -0.17960070496E+02  0.15579629306E+02  0.24517205865E+02  0.00000000000E+00 0. -1.
         22    1    1    2    0    0  0.12583001330E+03  0.32892775432E+02  0.65410930673E+03  0.66691387155E+03  0.00000000000E+00 0. -1.
</event>
<event>
 6    1  0.4069520E-005  0.7871417E+02  0.7818608E-02  0.1429738E+00
          2   -1    0    0  502    0  0.00000000000E+00  0.00000000000E+00  0.19349069727E+02  0.19349069727E+02  0.00000000000E+00 0. -1.
          1   -1    0    0  501    0 -0.00000000000E+00 -0.00000000000E+00 -0.49145076088E+03  0.49145076088E+03  0.00000000000E+00 0. -1.
          2    1    1    2  501    0  0.90809882185E+01 -0.18887936726E+02 -0.53491979753E+02  0.57450939059E+02  0.00000000000E+00 0. -1.
          1    1    1    2  502    0  0.33394798451E+02  0.21332600548E+02 -0.10699728249E+03  0.11409956560E+03  0.00000000000E+00 0. -1.
         22    1    1    2    0    0 -0.55960877316E+02  0.65221922463E+01 -0.31716466433E+03  0.32212976125E+03  0.00000000000E+00 0. -1.
         22    1    1    2    0    0  0.13485090647E+02 -0.89668560683E+01  0.55522354191E+01  0.17119564704E+02  0.00000000000E+00 0. -1.
</event>
<event>
 6    1  0.4069520E-005  0.1112222E+03  0.7818608E-02  0.1328239E+00
          2   -1    0    0  502    0  0.00000000000E+00  0.00000000000E+00  0.24520882988E+02  0.24520882988E+02  0.00000000000E+00 0.  1.
          1   -1    0    0  501    0 -0.00000000000E+00 -0.00000000000E+00 -0.30259374356E+04  0.30259374356E+04  0.00000000000E+00 0.  1.
          2    1    1    2  501    0 -0.23295331480E+02 -0.29861161392E+01 -0.28790437218E+02  0.37154792875E+02  0.00000000000E+00 0.  1.
          1    1    1    2  502    0  0.28767660530E+01 -0.75659248166E+02 -0.27265887674E+04  0.27276398047E+04  0.00000000000E+00 0.  1.
         22    1    1    2    0    0  0.72882095237E+01  0.10584173290E+03 -0.22529925528E+03  0.24902880325E+03  0.00000000000E+00 0.  1.
         22    1    1    2    0    0  0.13130355904E+02 -0.27196368598E+02 -0.20738092742E+02  0.36634917793E+02  0.00000000000E+00 0.  1.
</event>
<event>
 6    1  0.4069520E-005  0.1032362E+03  0.7818608E-02  0.1276769E+00
          2   -1    0    0  502    0  0.00000000000E+00  0.00000000000E+00  0.24682401784E+03  0.24682401784E+03  0.00000000000E+00 0.  1.
          1   -1    0    0  501    0 -0.00000000000E+00 -0.00000000000E+00 -0.74140781414E+03  0.74140781414E+03  0.00000000000E+00 0.  1.
          2    1    1    2  501    0  0.87244558383E+02 -0.30304178022E+02  0.43132533608E+02  0.10193317237E+03  0.00000000000E+00 0.  1.
          1    1    1    2  502    0 -0.46457507233E+02  0.65466081683E+02 -0.68317233325E+03  0.68787247710E+03  0.00000000000E+00 0.  1.
         22    1    1    2    0    0 -0.80840927528E+02 -0.43299201251E+02  0.11684265334E+03  0.14853377404E+03  0.00000000000E+00 0.  1.
         22    1    1    2    0    0  0.40053876377E+02  0.81372975897E+01  0.28613350006E+02  0.49892408476E+02  0.00000000000E+00 0.  1.
</event>
<event>
 6    1  0.4069520E-005  0.6837238E+02  0.7818608E-02  0.1402957E+00
          2   -1    0    0  502    0  0.00000000000E+00  0.00000000000E+00  0.99039120499E+02  0.99039120499E+02  0.00000000000E+00 0.  1.
          1   -1    0    0  501    0 -0.00000000000E+00 -0.00000000000E+00 -0.16357560466E+03  0.16357560466E+03  0.00000000000E+00 0.  1.
          2    1    1    2  501    0 -0.28023221902E+01  0.20483185693E+02 -0.68210752261E+01  0.21770185415E+02  0.00000000000E+00 0.  1.
          1    1    1    2  502    0 -0.28780186205E+02 -0.51062477799E+02 -0.83720656707E+02  0.10219992229E+03  0.00000000000E+00 0.  1.
         22    1    1    2    0    0  0.28069655752E+02  0.67802249818E+02 -0.23093570709E+02  0.76930901870E+02  0.00000000000E+00 0.  1.
         22    1    1    2    0    0  0.35128526427E+01 -0.37222957711E+02  0.49098818482E+02  0.61713715581E+02  0.00000000000E+00 0.  1.
</event>
<event>
 6    1  0.1043429E-004  0.2990368E+02  0.7818608E-02  0.1602993E+00
          2   -1    0    0  502    0  0.00000000000E+00  0.00000000000E+00  0.64775080396E+02  0.64775080396E+02  0.00000000000E+00 0.  1.
          1   -1    0    0  501    0 -0.00000000000E+00 -0.00000000000E+00 -0.84061713854E+03  0.84061713854E+03  0.00000000000E+00 0.  1.
          2    1    1    2  501    0  0.34611016585E+02  0.10746898170E+01 -0.15825573075E+03  0.16199985723E+03  0.00000000000E+00 0.  1.
          1    1    1    2  502    0 -0.20879594957E+02  0.70613146285E+01 -0.62175375802E+03  0.62214432029E+03  0.00000000000E+00 0.  1.
         22    1    1    2    0    0  0.11097288293E+02  0.55164455975E+01 -0.54609431491E+02  0.55997955206E+02  0.00000000000E+00 0. -1.
         22    1    1    2    0    0 -0.24828709921E+02 -0.13652450043E+02  0.58776862126E+02  0.65250086206E+02  0.00000000000E+00 0.  1.
</event>
<event>
 6    1  0.4069520E-005  0.4588208E+03  0.7818608E-02  0.1166717E+00
          2   -1    0    0  502    0  0.00000000000E+00  0.00000000000E+00  0.43046476682E+03  0.43046476682E+03  0.00000000000E+00 0. -1.
          1   -1    0    0  501    0 -0.00000000000E+00 -0.00000000000E+00 -0.62514932627E+03  0.62514932627E+03  0.00000000000E+00 0. -1.
          2    1    1    2  501    0  0.50808478420E+02 -0.33344657245E+03 -0.22912985359E+03  0.40776047867E+03  0.00000000000E+00 0. -1.
          1    1    1    2  502    0  0.41100803379E+02  0.41681171373E+03  0.13972304741E+03  0.44152441690E+03  0.00000000000E+00 0. -1.
         22    1    1    2    0    0 -0.11139850988E+02  0.26437120591E+00  0.27601676589E+02  0.29766066631E+02  0.00000000000E+00 0.  1.
         22    1    1    2    0    0 -0.80769430810E+02 -0.83629512488E+02 -0.13287942985E+03  0.17656313089E+03  0.00000000000E+00 0. -1.
</event>
<event>
 6    1  0.4069520E-005  0.5342215E+02  0.7818608E-02  0.1514454E+00
          2   -1    0    0  502    0  0.00000000000E+00  0.00000000000E+00  0.34487970311E+02  0.34487970311E+02  0.00000000000E+00 0.  1.
          1   -1    0    0  501    0 -0.00000000000E+00 -0.00000000000E+00 -0.36793858906E+03  0.36793858906E+03  0.00000000000E+00 0.  1.
          2    1    1    2  501    0 -0.19797110746E+02  0.45155172601E+01 -0.54755394148E+02  0.58399218131E+02  0.00000000000E+00 0.  1.
          1    1    1    2  502    0  0.38119963887E+02 -0.23438043567E+02 -0.18053352545E+03  0.18599684768E+03  0.00000000000E+00 0.  1.
         22    1    1    2    0    0 -0.14341507396E+01 -0.15364179628E+02  0.24831500859E+02  0.29235564624E+02  0.00000000000E+00 0.  1.
         22    1    1    2    0    0 -0.16888702401E+02  0.34286705936E+02 -0.12299320001E+03  0.12879492894E+03  0.00000000000E+00 0.  1.
</event>
<event>
 6    1  0.4069520E-005  0.1239308E+03  0.7818608E-02  0.1313197E+00
          2   -1    0    0  502    0  0.00000000000E+00  0.00000000000E+00  0.70751491915E+02  0.70751491915E+02  0.00000000000E+00 0. -1.
          1   -1    0    0  501    0 -0.00000000000E+00 -0.00000000000E+00 -0.15573704195E+04  0.15573704195E+04  0.00000000000E+00 0. -1.
          2    1    1    2  501    0 -0.25939695481E+02 -0.34614307437E+02 -0.10765844578E+03  0.11602309696E+03  0.00000000000E+00 0. -1.
          1    1    1    2  502    0  0.21730225296E+02  0.11264507622E+03 -0.13537927565E+04  0.13586448923E+04  0.00000000000E+00 0. -1.
         22    1    1    2    0    0  0.19962430642E+02 -0.54217567257E+02 -0.75810605796E+02  0.95316793838E+02  0.00000000000E+00 0.  1.
         22    1    1    2    0    0 -0.15752960458E+02 -0.23813201524E+02  0.50642880544E+02  0.58137128238E+02  0.00000000000E+00 0. -1.
</event>
<event>
 6    1  0.4069520E-005  0.1059497E+03  0.7818608E-02  0.1348826E+00
          2   -1    0    0  502    0  0.00000000000E+00  0.00000000000E+00  0.11484740102E+03  0.11484740102E+03  0.00000000000E+00 0. -1.
          1   -1    0    0  501    0 -0.00000000000E+00 -0.00000000000E+00 -0.69255713346E+03  0.69255713346E+03  0.00000000000E+00 0. -1.
          2    1    1    2  501    0 -0.12659993216E+02 -0.52477246110E+02  0.17940220251E+02  0.56885747690E+02  0.00000000000E+00 0. -1.
          1    1    1    2  502    0  0.33682946123E+02  0.76605511248E+02 -0.61641492708E+03  0.62206937518E+03  0.00000000000E+00 0. -1.
         22    1    1    2    0    0 -0.16603760336E+01 -0.39034439785E+02 -0.44228830284E+02  0.59013843852E+02  0.00000000000E+00 0. -1.
         22    1    1    2    0    0 -0.19362576873E+02  0.14906174647E+02  0.64993804670E+02  0.69435567768E+02  0.00000000000E+00 0. -1.
</event>
<event>
 6    1  0.4069520E-005  0.1283253E+03  0.7818608E-02  0.1236890E+00
          2   -1    0    0  502    0  0.00000000000E+00  0.00000000000E+00  0.23387997093E+03  0.23387997093E+03  0.00000000000E+00 0.  1.
          1   -1    0    0  501    0 -0.00000000000E+00 -0.00000000000E+00 -0.74969679861E+03  0.74969679861E+03  0.00000000000E+00 0.  1.
          2    1    1    2  501    0 -0.62327211047E+02 -0.10075191142E+03 -0.65685563301E+02  0.13546299169E+03  0.00000000000E+00 0.  1.
          1    1    1    2  502    0  0.90607422921E+01  0.49701540243E+02 -0.62145028875E+03  0.62350044230E+03  0.00000000000E+00 0.  1.
         22    1    1    2    0    0 -0.16704431184E+02 -0.28225908423E+02  0.15430409592E+02  0.36246895973E+02  0.00000000000E+00 0. -1.
         22    1    1    2    0    0  0.69970899939E+02  0.79276279597E+02  0.15588861477E+03  0.18836643958E+03  0.00000000000E+00 0.  1.
</event>
<event>
 6    1  0.4069520E-005  0.4536114E+02  0.7818608E-02  0.1570210E+00
          2   -1    0    0  502    0  0.00000000000E+00  0.00000000000E+00  0.59615881442E+02  0.59615881442E+02  0.00000000000E+00 0.  1.
          1   -1    0    0  501    0 -0.00000000000E+00 -0.00000000000E+00 -0.48701868870E+03  0.48701868870E+03  0.00000000000E+00 0.  1.
          2    1    1    2  501    0  0.28199039120E+02  0.13570186270E+02 -0.14101823725E+03  0.14444888023E+03  0.00000000000E+00 0.  1.
          1    1    1    2  502    0 -0.36536119716E+02 -0.15216947978E+02 -0.27307259564E+03  0.27592587055E+03  0.00000000000E+00 0.  1.
         22    1    1    2    0    0  0.19651905396E+02 -0.29745473223E+01 -0.67678343482E+02  0.70536540133E+02  0.00000000000E+00 0. -1.
         22    1    1    2    0    0 -0.11314824800E+02  0.46213090302E+01  0.54366369113E+02  0.55723279228E+02  0.00000000000E+00 0.  1.
</event>
<event>
 6    1  0.4069520E-005  0.3310013E+03  0.7818608E-02  0.1174239E+00
          2   -1    0    0  502    0  0.00000000000E+00  0.00000000000E+00  0.85353369698E+03  0.85353369698E+03  0.00000000000E+00 0. -1.
          1   -1    0    0  501    0 -0.00000000000E+00 -0.00000000000E+00 -0.38228942093E+03  0.38228942093E+03  0.00000000000E+00 0. -1.
          2    1    1    2  501    0 -0.15007182849E+03  0.16534657461E+02  0.18963990006E+03  0.24240099071E+03  0.00000000000E+00 0. -1.
          1    1    1    2  502    0  0.25934133663E+02  0.11555928220E+02 -0.34266997447E+03  0.34384419461E+03  0.00000000000E+00 0. -1.
         22    1    1    2    0    0 -0.24919668084E+02  0.18871596439E+01  0.13250979800E+03  0.13484582973E+03  0.00000000000E+00 0. -1.
         22    1    1    2    0    0  0.14905736291E+03 -0.29977745324E+02  0.49176455246E+03  0.51473210286E+03  0.00000000000E+00 0. -1.
</event>
<event>
 6    1  0.4069520E-005  0.2298982E+03  0.7818608E-02  0.1219735E+00
          2   -1    0    0  502    0  0.00000000000E+00  0.00000000000E+00  0.21102348026E+03  0.21102348026E+03  0.00000000000E+00 0.  1.
          1   -1    0    0  501    0 -0.00000000000E+00 -0.00000000000E+00 -0.42826780572E+03  0.42826780572E+03  0.00000000000E+00 0. -1.
          2    1    1    2  501    0 -0.12754415744E+02 -0.29461377090E+02 -0.43212465169E+02  0.53832750320E+02  0.00000000000E+00 0.  1.
          1    1    1    2  502    0 -0.62867711668E+01 -0.13342566225E+03 -0.30993710306E+03  0.33749509433E+03  0.00000000000E+00 0. -1.
         22    1    1    2    0    0 -0.85671422902E+01  0.16349459655E+03  0.72985822588E+02  0.17925068849E+03  0.00000000000E+00 0.  1.
         22    1    1    2    0    0  0.27608329201E+02 -0.60755720789E+00  0.62919420184E+02  0.68712752843E+02  0.00000000000E+00 0.  1.
</event>
<event>
 6    1  0.4069520E-005  0.3459420E+03  0.7818608E-02  0.1187427E+00
          2   -1    0    0  502    0  0.00000000000E+00  0.00000000000E+00  0.45466994674E+03  0.45466994674E+03  0.00000000000E+00 0.  1.
          1   -1    0    0  501    0 -0.00000000000E+00 -0.00000000000E+00 -0.71380673526E+03  0.71380673526E+03  0.00000000000E+00 0. -1.
          2    1    1    2  501    0 -0.17847073808E+03  0.12756599068E+03  0.27134998758E+03  0.34893509724E+03  0.00000000000E+00 0.  1.
          1    1    1    2  502    0  0.82554352562E+02 -0.11194258906E+03 -0.62245424554E+03  0.63780534033E+03  0.00000000000E+00 0. -1.
         22    1    1    2    0    0 -0.60007152207E+01 -0.15135268456E+02  0.77026746557E+02  0.78728677237E+02  0.00000000000E+00 0.  1.
         22    1    1    2    0    0  0.10191710074E+03 -0.48813316537E+00  0.14940722878E+02  0.10300756719E+03  0.00000000000E+00 0.  1.
</event>
<event>
 6    1  0.4069520E-005  0.1501534E+03  0.7818608E-02  0.1201015E+00
          2   -1    0    0  502    0  0.00000000000E+00  0.00000000000E+00  0.27932662892E+03  0.27932662892E+03  0.00000000000E+00 0. -1.
          1   -1    0    0  501    0 -0.00000000000E+00 -0.00000000000E+00 -0.14277047976E+03  0.14277047976E+03  0.00000000000E+00 0. -1.
          2    1    1    2  501    0 -0.95880486655E+02  0.44834522646E+02  0.71498921019E+02  0.12773135030E+03  0.00000000000E+00 0. -1.
          1    1    1    2  502    0 -0.53888734106E+02 -0.83243153204E+01 -0.40471323291E+02  0.67905948915E+02  0.00000000000E+00 0. -1.
         22    1    1    2    0    0 -0.22268445542E+02  0.31112078579E+01  0.40988140989E+01  0.22855274188E+02  0.00000000000E+00 0.  1.
         22    1    1    2    0    0  0.17203766630E+03 -0.39621415184E+02  0.10142973733E+03  0.20360453527E+03  0.00000000000E+00 0. -1.
</event>
<event>
 6    1  0.4069520E-005  0.2084420E+03  0.7818608E-02  0.1229683E+00
          2   -1    0    0  502    0  0.00000000000E+00  0.00000000000E+00  0.11569310424E+04  0.11569310424E+04  0.00000000000E+00 0.  1.
          1   -1    0    0  501    0 -0.00000000000E+00 -0.00000000000E+00 -0.86630916229E+02  0.86630916229E+02  0.00000000000E+00 0. -1.
          2    1    1    2  501    0  0.25274702505E+02  0.55694566718E+02  0.20217000292E+03  0.21121885670E+03  0.00000000000E+00 0.  1.
          1    1    1    2  502    0 -0.14367587384E+03 -0.12915415967E+03  0.60155355086E+02  0.20234184053E+03  0.00000000000E+00 0. -1.
         22    1    1    2    0    0  0.14573750235E+03  0.60822554159E+02  0.62967194284E+03  0.64917298025E+03  0.00000000000E+00 0.  1.
         22    1    1    2    0    0 -0.27336331021E+02  0.12637038788E+02  0.17830282535E+03  0.18082828117E+03  0.00000000000E+00 0.  1.
</event>
<event>
 6    1  0.4069520E-005  0.1045346E+03  0.7818608E-02  0.1294378E+00
          2   -1    0    0  502    0  0.00000000000E+00  0.00000000000E+00  0.14684564954E+02  0.14684564954E+02  0.00000000000E+00 0.  1.
          1   -1    0    0  501    0 -0.00000000000E+00 -0.00000000000E+00 -0.89970415172E+03  0.89970415172E+03  0.00000000000E+00 0.  1.
          2    1    1    2  501    0 -0.23168961280E+02  0.35393717661E+01 -0.23511779898E+03  0.23628310840E+03  0.00000000000E+00 0.  1.
          1    1    1    2  502    0  0.44866828315E+01  0.23073135401E+02 -0.37078034506E+03  0.37152464815E+03  0.00000000000E+00 0.  1.
         22    1    1    2    0    0 -0.42636060362E+02 -0.42150434929E+02 -0.99734262564E+02  0.11636758972E+03  0.00000000000E+00 0.  1.
         22    1    1    2    0    0  0.61318338811E+02  0.15537927761E+02 -0.17938718016E+03  0.19021337040E+03  0.00000000000E+00 0.  1.
</event>
<event>
 6    1  0.4069520E-005  0.1565480E+03  0.7818608E-02  0.1305671E+00
          2   -1    0    0  502    0  0.00000000000E+00  0.00000000000E+00  0.17901401420E+03  0.17901401420E+03  0.00000000000E+00 0. -1.
          1   -1    0    0  501    0 -0.00000000000E+00 -0.00000000000E+00 -0.82873437332E+03  0.82873437332E+03  0.00000000000E+00 0.  1.
          2    1    1    2  501    0 -0.69939570210E+02 -0.68116003137E+01  0.28747379617E+02  0.75923337749E+02  0.00000000000E+00 0. -1.
          1    1    1    2  502    0  0.97957771000E+02 -0.76203508468E+02 -0.75133862658E+03  0.76151981681E+03  0.00000000000E+00 0.  1.
         22    1    1    2    0    0  0.42181240687E+01  0.15683309609E+02  0.91853874713E+02  0.93278577770E+02  0.00000000000E+00 0. -1.
         22    1    1    2    0    0 -0.32236324859E+02  0.67331799174E+02 -0.18982986871E+02  0.77026655197E+02  0.00000000000E+00 0. -1.
</event>
<event>
 6    1  0.4069520E-005  0.1083779E+03  0.7818608E-02  0.1371874E+00
          2   -1    0    0  502    0  0.00000000000E+00  0.00000000000E+00  0.96302432624E+02  0.96302432624E+02  0.00000000000E+00 0.  1.
          1   -1    0    0  501    0 -0.00000000000E+00 -0.00000000000E+00 -0.37525635764E+04  0.37525635764E+04  0.00000000000E+00 0. -1.
          2    1    1    2  501    0 -0.20450210661E+02 -0.49323427713E+02  0.48617862849E+01  0.53615749583E+02  0.00000000000E+00 0.  1.
          1    1    1    2  502    0  0.56911672805E+02  0.36719138523E+02 -0.36670443441E+04  0.36676697582E+04  0.00000000000E+00 0. -1.
         22    1    1    2    0    0 -0.51918141035E+02  0.11437625885E+02 -0.47907494137E+02  0.71564241412E+02  0.00000000000E+00 0.  1.
         22    1    1    2    0    0  0.15456678891E+02  0.11666633054E+01  0.53828908104E+02  0.56016259900E+02  0.00000000000E+00 0. -1.
</event>
<event>
 6    1  0.4069520E-005  0.1102963E+03  0.7818608E-02  0.1310904E+00
          2   -1    0    0  502    0  0.00000000000E+00  0.00000000000E+00  0.26966667219E+03  0.26966667219E+03  0.00000000000E+00 0.  1.
          1   -1    0    0  501    0 -0.00000000000E+00 -0.00000000000E+00 -0.87169775968E+02  0.87169775968E+02  0.00000000000E+00 0.  1.
          2    1    1    2  501    0  0.22905576893E+02 -0.25935417072E+02  0.19865005239E+02  0.39898994281E+02  0.00000000000E+00 0.  1.
          1    1    1    2  502    0 -0.23121656603E+02 -0.25079819705E+02 -0.51512156839E+02  0.61782769950E+02  0.00000000000E+00 0.  1.
         22    1    1    2    0    0 -0.14964673559E+02 -0.35968418358E+02  0.11962398101E+03  0.12580765241E+03  0.00000000000E+00 0.  1.
         22    1    1    2    0    0  0.15180753269E+02  0.86983655135E+02  0.94520066819E+02  0.12934703152E+03  0.00000000000E+00 0.  1.
</event>
<event>
 6    1  0.4069520E-005  0.2386931E+03  0.7818608E-02  0.1210702E+00
          2   -1    0    0  502    0  0.00000000000E+00  0.00000000000E+00  0.13614230790E+03  0.13614230790E+03  0.00000000000E+00 0.  1.
          1   -1    0    0  501    0 -0.00000000000E+00 -0.00000000000E+00 -0.60459382081E+03  0.60459382081E+03  0.00000000000E+00 0.  1.
          2    1    1    2  501    0 -0.12363722884E+03  0.14328513585E+03 -0.75970012025E+02  0.20393194266E+03  0.00000000000E+00 0.  1.
          1    1    1    2  502    0  0.16790213222E+03 -0.15344577688E+03 -0.28123249637E+03  0.36170215573E+03  0.00000000000E+00 0.  1.
         22    1    1    2    0    0 -0.20264777463E+02 -0.21948146766E+02 -0.12815880781E+03  0.13159430980E+03  0.00000000000E+00 0.  1.
         22    1    1    2    0    0 -0.24000125921E+02  0.32108787800E+02  0.16909803283E+02  0.43507720525E+02  0.00000000000E+00 0.  1.
</event>
<event>
 6    1  0.4069520E-005  0.7356456E+02  0.7818608E-02  0.1358934E+00
          2   -1    0    0  502    0  0.00000000000E+00  0.00000000000E+00  0.30687467363E+03  0.30687467363E+03  0.00000000000E+00 0.  1.
          1   -1    0    0  501    0 -0.00000000000E+00 -0.00000000000E+00 -0.43741839990E+02  0.43741839990E+02  0.00000000000E+00 0.  1.
          2    1    1    2  501    0  0.14599318701E+02 -0.34462524138E+02  0.45034615764E+01  0.37697305510E+02  0.00000000000E+00 0.  1.
          1    1    1    2  502    0 -0.28132531812E+02  0.24920774596E+02  0.18488631211E+02  0.41884529801E+02  0.00000000000E+00 0.  1.
         22    1    1    2    0    0 -0.16854023821E+02 -0.42533124575E+02  0.36116830562E+02  0.58288508773E+02  0.00000000000E+00 0. -1.
         22    1    1    2    0    0  0.30387236931E+02  0.52074874117E+02  0.20402391029E+03  0.21274616954E+03  0.00000000000E+00 0.  1.
</event>
<event>
 6    1  0.4069520E-005  0.1069295E+03  0.7818608E-02  0.1275332E+00
          2   -1    0    0  502    0  0.00000000000E+00  0.00000000000E+00  0.31332870262E+02  0.31332870262E+02  0.00000000000E+00 0. -1.
          1   -1    0    0  501    0 -0.00000000000E+00 -0.00000000000E+00 -0.92440233822E+03  0.92440233822E+03  0.00000000000E+00 0. -1.
          2    1    1    2  501    0  0.72761548393E+02  0.61246932303E+02 -0.27662181553E+03  0.29251505682E+03  0.00000000000E+00 0. -1.
          1    1    1    2  502    0 -0.26933824274E+02 -0.57000379730E+02 -0.43048349727E+03  0.43507529878E+03  0.00000000000E+00 0. -1.
         22    1    1    2    0    0 -0.53315143238E+02 -0.55989625276E+02 -0.88272963742E+02  0.11734333711E+03  0.00000000000E+00 0. -1.
         22    1    1    2    0    0  0.74874191187E+01  0.51743072703E+02 -0.97691191415E+02  0.11080151577E+03  0.00000000000E+00 0. -1.
</event>
<event>
 6    1  0.4069520E-005  0.4856493E+03  0.7818608E-02  0.1132188E+00
          2   -1    0    0  502    0  0.00000000000E+00  0.00000000000E+00  0.22626872730E+04  0.22626872730E+04  0.00000000000E+00 0. -1.
          1   -1    0    0  501    0 -0.00000000000E+00 -0.00000000000E+00 -0.10163812796E+03  0.10163812796E+03  0.00000000000E+00 0. -1.
          2    1    1    2  501    0 -0.41185052850E+02 -0.25796932592E+03  0.33205137035E+03  0.42249555529E+03  0.00000000000E+00 0. -1.
          1    1    1    2  502    0 -0.12123952446E+03  0.11046765577E+03  0.15756742249E+04  0.15841879270E+04  0.00000000000E+00 0. -1.
         22    1    1    2    0    0 -0.15739303089E+02  0.14375219640E+02  0.57454124057E+02  0.61280902185E+02  0.00000000000E+00 0.  1.
         22    1    1    2    0    0  0.17816388040E+03  0.13312645051E+03  0.19586942573E+03  0.29636101640E+03  0.00000000000E+00 0. -1.
</event>
<event>
 6    1  0.4069520E-005  0.1574589E+03  0.7818608E-02  0.1270201E+00
          2   -1    0    0  502    0  0.00000000000E+00  0.00000000000E+00  0.78527154908E+03  0.78527154908E+03  0.00000000000E+00 0. -1.
          1   -1    0    0  501    0 -0.00000000000E+00 -0.00000000000E+00 -0.32493287605E+02  0.32493287605E+02  0.00000000000E+00 0. -1.
          2    1    1    2  501    0  0.27248070285E+01  0.52048018985E+02  0.25378410407E+03  0.25908066761E+03  0.00000000000E+00 0. -1.
          1    1    1    2  502    0  0.57679758281E+02  0.46892534992E+01  0.28244832666E+02  0.64394985721E+02  0.00000000000E+00 0. -1.
         22    1    1    2    0    0 -0.76652757520E+02 -0.83239404684E+02  0.41815106306E+03  0.43319136102E+03  0.00000000000E+00 0. -1.
         22    1    1    2    0    0  0.16248192211E+02  0.26502132199E+02  0.52598261688E+02  0.61097822333E+02  0.00000000000E+00 0. -1.
</event>
<event>
 6    1  0.4069520E-005  0.2564567E+03  0.7818608E-02  0.1183136E+00
          2   -1    0    0  502    0  0.00000000000E+00  0.00000000000E+00  0.59434156148E+02  0.59434156148E+02  0.00000000000E+00 0.  1.
          1   -1    0    0  501    0 -0.00000000000E+00 -0.00000000000E+00 -0.14327421890E+04  0.14327421890E+04  0.00000000000E+00 0. -1.
          2    1    1    2  501    0 -0.10316262270E+03 -0.30418955142E+02 -0.38381517157E+03  0.39859995670E+03  0.00000000000E+00 0.  1.
          1    1    1    2  502    0  0.51998804451E+02 -0.11951064417E+02 -0.93821425656E+03  0.93973011808E+03  0.00000000000E+00 0. -1.
         22    1    1    2    0    0 -0.39155192729E+02  0.20008731590E+02  0.63080904146E+01  0.44421509003E+02  0.00000000000E+00 0.  1.
         22    1    1    2    0    0  0.90319010976E+02  0.22361287970E+02 -0.57586695133E+02  0.10942476136E+03  0.00000000000E+00 0.  1.
</event>
<event>
 6    1  0.4069520E-005  0.1700236E+03  0.7818608E-02  0.1241174E+00
          2   -1    0    0  502    0  0.00000000000E+00  0.00000000000E+00  0.20985032176E+04  0.20985032176E+04  0.00000000000E+00 0. -1.
          1   -1    0    0  501    0 -0.00000000000E+00 -0.00000000000E+00 -0.25777695435E+02  0.25777695435E+02  0.00000000000E+00 0. -1.
          2    1    1    2  501    0 -0.54272448698E+02 -0.25285178544E+02  0.67192998371E+02  0.89998544276E+02  0.00000000000E+00 0. -1.
          1    1    1    2  502    0  0.86504087002E+02  0.10466130438E+03  0.14864580408E+04  0.14926467943E+04  0.00000000000E+00 0. -1.
         22    1    1    2    0    0  0.43237358031E+02 -0.73823139643E+01  0.23409587843E+03  0.23816978815E+03  0.00000000000E+00 0. -1.
         22    1    1    2    0    0 -0.75468996335E+02 -0.71993811874E+02  0.28497860459E+03  0.30346578626E+03  0.00000000000E+00 0.  1.
</event>
<event>
 6    1  0.4069520E-005  0.6717249E+02  0.7818608E-02  0.1392682E+00
          2   -1    0    0  502    0  0.00000000000E+00  0.00000000000E+00  0.14630227742E+03  0.14630227742E+03  0.00000000000E+00 0.  1.
          1   -1    0    0  501    0 -0.00000000000E+00 -0.00000000000E+00 -0.84202072284E+03  0.84202072284E+03  0.00000000000E+00 0.  1.
          2    1    1    2  501    0 -0.22742079217E+02 -0.38613633957E+01 -0.24606856195E+01  0.23198432450E+02  0.00000000000E+00 0.  1.
          1    1    1    2  502    0  0.63565439312E+02 -0.52655267030E+01 -0.79613618796E+03  0.79868712312E+03  0.00000000000E+00 0.  1.
         22    1    1    2    0    0 -0.31688157336E+02 -0.36384376711E+02 -0.54759407285E+01  0.48558707879E+02  0.00000000000E+00 0.  1.
         22    1    1    2    0    0 -0.91352027584E+01  0.45511266810E+02  0.10835436889E+03  0.11787873682E+03  0.00000000000E+00 0.  1.
</event>
<event>
 6    1  0.4069520E-005  0.1080749E+03  0.7818608E-02  0.1278096E+00
          2   -1    0    0  502    0  0.00000000000E+00  0.00000000000E+00  0.85582364996E+03  0.85582364996E+03  0.00000000000E+00 0. -1.
          1   -1    0    0  501    0 -0.00000000000E+00 -0.00000000000E+00 -0.29747074858E+02  0.29747074858E+02  0.00000000000E+00 0. -1.
          2    1    1    2  501    0 -0.13556287066E+02  0.56810689637E+02  0.20461366576E+03  0.21278622980E+03  0.00000000000E+00 0. -1.
          1    1    1    2  502    0  0.86295584479E+02 -0.66888025704E+02  0.20004096966E+03  0.22789762049E+03  0.00000000000E+00 0. -1.
         22    1    1    2    0    0 -0.78799000907E+02 -0.24800784787E+02  0.38624610430E+03  0.39498153698E+03  0.00000000000E+00 0. -1.
         22    1    1    2    0    0  0.60597034945E+01  0.34878120854E+02  0.35175835385E+02  0.49905337548E+02  0.00000000000E+00 0.  1.
</event>
<event>
 6    1  0.4069520E-005  0.7056745E+02  0.7818608E-02  0.1364960E+00
          2   -1    0    0  502    0  0.00000000000E+00  0.00000000000E+00  0.45827171008E+03  0.45827171008E+03  0.00000000000E+00 0.  1.
          1   -1    0    0  501    0 -0.00000000000E+00 -0.00000000000E+00 -0.75336853148E+02  0.75336853148E+02  0.00000000000E+00 0.  1.
          2    1    1    2  501    0 -0.26326153440E+02  0.27695279999E+02 -0.40375896016E+02  0.55590537579E+02  0.00000000000E+00 0.  1.
          1    1    1    2  502    0 -0.27220275089E+02 -0.52631799940E+02  0.43485062902E+02  0.73498302269E+02  0.00000000000E+00 0.  1.
         22    1    1    2    0    0 -0.10549519443E+02  0.18797055967E+02  0.24541366348E+01  0.21694341661E+02  0.00000000000E+00 0.  1.
         22    1    1    2    0    0  0.64095947971E+02  0.61394639736E+01  0.37737155341E+03  0.38282538172E+03  0.00000000000E+00 0.  1.
</event>
<event>
 6    1  0.4069520E-005  0.6521302E+02  0.7818608E-02  0.1453458E+00
          2   -1    0    0  502    0  0.00000000000E+00  0.00000000000E+00  0.32701973257E+02  0.32701973257E+02  0.00000000000E+00 0. -1.
          1   -1    0    0  501    0 -0.00000000000E+00 -0.00000000000E+00 -0.31626275803E+03  0.31626275803E+03  0.00000000000E+00 0. -1.
          2    1    1    2  501    0 -0.40558115655E+01 -0.25482150479E+02 -0.12008685922E+03  0.12282769785E+03  0.00000000000E+00 0. -1.
          1    1    1    2  502    0 -0.20737209591E+02  0.16158705731E+02 -0.29357172871E+02  0.39407857484E+02  0.00000000000E+00 0. -1.
         22    1    1    2    0    0 -0.19263840120E+02  0.53532794618E+01  0.18859794234E+02  0.27485359298E+02  0.00000000000E+00 0. -1.
         22    1    1    2    0    0  0.44056861276E+02  0.39701652861E+01 -0.15297654691E+03  0.15924381665E+03  0.00000000000E+00 0. -1.
</event>
<event>
 6    1  0.4069520E-005  0.2078696E+03  0.7818608E-02  0.1230483E+00
          2   -1    0    0  502    0  0.00000000000E+00  0.00000000000E+00  0.10658002229E+03  0.10658002229E+03  0.00000000000E+00 0. -1.
          1   -1    0    0  501    0 -0.00000000000E+00 -0.00000000000E+00 -0.64284338245E+03  0.64284338245E+03  0.00000000000E+00 0.  1.
          2    1    1    2  501    0 -0.72971565457E+02 -0.19177103727E+02 -0.10748929866E+03  0.13132615885E+03  0.00000000000E+00 0. -1.
          1    1    1    2  502    0 -0.33490898766E+00  0.22996536363E+02 -0.46726102826E+03  0.46782670015E+03  0.00000000000E+00 0.  1.
         22    1    1    2    0    0 -0.29660570328E+02  0.27327203674E+01  0.36453503215E+02  0.47075206738E+02  0.00000000000E+00 0. -1.
         22    1    1    2    0    0  0.10296704477E+03 -0.65521530029E+01  0.20334635422E+01  0.10319533900E+03  0.00000000000E+00 0. -1.
</event>
<event>
 6    1  0.4069520E-005  0.1391812E+03  0.7818608E-02  0.1218960E+00
          2   -1    0    0  502    0  0.00000000000E+00  0.00000000000E+00  0.60901720789E+03  0.60901720789E+03  0.00000000000E+00 0.  1.
          1   -1    0    0  501    0 -0.00000000000E+00 -0.00000000000E+00 -0.11548404946E+03  0.11548404946E+03  0.00000000000E+00 0.  1.
          2    1    1    2  501    0 -0.41838690723E+01 -0.14889537714E+03 -0.11772752217E+02  0.14941865944E+03  0.00000000000E+00 0.  1.
          1    1    1    2  502    0  0.45514332480E+02  0.74453584951E+02  0.34490428847E+03  0.35577220096E+03  0.00000000000E+00 0.  1.
         22    1    1    2    0    0  0.89373984608E+01 -0.30594068897E+02  0.23590635472E+02  0.39653401177E+02  0.00000000000E+00 0. -1.
         22    1    1    2    0    0 -0.50267861869E+02  0.10503586108E+03  0.13681098670E+03  0.17965699578E+03  0.00000000000E+00 0. -1.
</event>
<event>
 6    1  0.4069520E-005  0.9248514E+02  0.7818608E-02  0.1353279E+00
          2   -1    0    0  502    0  0.00000000000E+00  0.00000000000E+00  0.51894798134E+03  0.51894798134E+03  0.00000000000E+00 0. -1.
          1   -1    0    0  501    0 -0.00000000000E+00 -0.00000000000E+00 -0.41443671101E+03  0.41443671101E+03  0.00000000000E+00 0. -1.
          2    1    1    2  501    0  0.15683822921E+02 -0.20802280136E+02  0.35945459737E+02  0.44393617064E+02  0.00000000000E+00 0. -1.
          1    1    1    2  502    0 -0.37162928243E+02  0.57108764650E+02 -0.39781364829E+03  0.40360648286E+03  0.00000000000E+00 0. -1.
         22    1    1    2    0    0  0.34408634668E+02 -0.67809739855E+02  0.42521449659E+03  0.43196004800E+03  0.00000000000E+00 0. -1.
         22    1    1    2    0    0 -0.12929529347E+02  0.31503255341E+02  0.41164962294E+02  0.53424544424E+02  0.00000000000E+00 0. -1.
</event>
<event>
 6    1  0.4069520E-005  0.8439566E+02  0.7818608E-02  0.1327296E+00
          2   -1    0    0  502    0  0.00000000000E+00  0.00000000000E+00  0.19819446951E+03  0.19819446951E+03  0.00000000000E+00 0. -1.
          1   -1    0    0  501    0 -0.00000000000E+00 -0.00000000000E+00 -0.11018324495E+03  0.11018324495E+03  0.00000000000E+00 0. -1.
          2    1    1    2  501    0 -0.15435811141E+02  0.14747206665E+02  0.62068641461E+02  0.65637341680E+02  0.00000000000E+00 0. -1.
          1    1    1    2  502    0  0.51583551973E+02  0.79702309993E+01 -0.65483199595E+02  0.83740294038E+02  0.00000000000E+00 0. -1.
         22    1    1    2    0    0 -0.13015344026E+02 -0.73087912046E+02  0.58616964363E+02  0.94589590223E+02  0.00000000000E+00 0. -1.
         22    1    1    2    0    0 -0.23132396805E+02  0.50370474383E+02  0.32808818328E+02  0.64410488521E+02  0.00000000000E+00 0.  1.
</event>
<event>
 6    1  0.4069520E-005  0.1461357E+03  0.7818608E-02  0.1209800E+00
          2   -1    0    0  502    0  0.00000000000E+00  0.00000000000E+00  0.28636964154E+02  0.28636964154E+02  0.00000000000E+00 0. -1.
          1   -1    0    0  501    0 -0.00000000000E+00 -0.00000000000E+00 -0.10306331877E+04  0.10306331877E+04  0.00000000000E+00 0. -1.
          2    1    1    2  501    0  0.91749200867E+02  0.65720906505E+02 -0.57370733569E+03  0.58470271116E+03  0.00000000000E+00 0. -1.
          1    1    1    2  502    0 -0.18131617666E+00 -0.26361737053E+02 -0.15371197086E+02  0.30516352269E+02  0.00000000000E+00 0. -1.
         22    1    1    2    0    0  0.33264901528E+02 -0.34593406629E+01 -0.83214820924E+02  0.89684040570E+02  0.00000000000E+00 0. -1.
         22    1    1    2    0    0 -0.12483278622E+03 -0.35899828790E+02 -0.32970286986E+03  0.35436704787E+03  0.00000000000E+00 0. -1.
</event>
<event>
 6    1  0.4069520E-005  0.3392768E+02  0.7818608E-02  0.1634501E+00
          2   -1    0    0  502    0  0.00000000000E+00  0.00000000000E+00  0.66925157769E+02  0.66925157769E+02  0.00000000000E+00 0.  1.
          1   -1    0    0  501    0 -0.00000000000E+00 -0.00000000000E+00 -0.38417798817E+03  0.38417798817E+03  0.00000000000E+00 0.  1.
          2    1    1    2  501    0  0.59898740833E+01 -0.19636253541E+02 -0.78459825921E+02  0.81101204234E+02  0.00000000000E+00 0.  1.
          1    1    1    2  502    0 -0.56329822716E+01  0.33582687112E+02 -0.24126612024E+03  0.24365727598E+03  0.00000000000E+00 0.  1.
         22    1    1    2    0    0 -0.96636367105E+01 -0.94317970865E+01  0.63259379255E+02  0.64684571070E+02  0.00000000000E+00 0.  1.
         22    1    1    2    0    0  0.93067448988E+01 -0.45146364849E+01 -0.60786263494E+02  0.61660094654E+02  0.00000000000E+00 0.  1.
</event>
<event>
 6    1  0.4069520E-005  0.1691163E+03  0.7818608E-02  0.1233261E+00
          2   -1    0    0  502    0  0.00000000000E+00  0.00000000000E+00  0.44975234701E+03  0.44975234701E+03  0.00000000000E+00 0.  1.
          1   -1    0    0  501    0 -0.00000000000E+00 -0.00000000000E+00 -0.53572514483E+02  0.53572514483E+02  0.00000000000E+00 0.  1.
          2    1    1    2  501    0 -0.21139805701E+02  0.71808759325E+02  0.98591637259E+02  0.12378893423E+03  0.00000000000E+00 0.  1.
          1    1    1    2  502    0 -0.35388238881E+02  0.13462282830E+01 -0.70771228239E+01  0.36114061654E+02  0.00000000000E+00 0.  1.
         22    1    1    2    0    0 -0.38291028253E+02 -0.30411008259E+02  0.14356737134E+03  0.15166615437E+03  0.00000000000E+00 0.  1.
         22    1    1    2    0    0  0.94819072835E+02 -0.42743979349E+02  0.16109794675E+03  0.19175571124E+03  0.00000000000E+00 0.  1.
</event>
<event>
 6    1  0.4069520E-005  0.6988292E+02  0.7818608E-02  0.1394055E+00
          2   -1    0    0  502    0  0.00000000000E+00  0.00000000000E+00  0.14929736514E+03  0.14929736514E+03  0.00000000000E+00 0. -1.
          1   -1    0    0  501    0 -0.00000000000E+00 -0.00000000000E+00 -0.13143929186E+03  0.13143929186E+03  0.00000000000E+00 0. -1.
          2    1    1    2  501    0 -0.33713268090E+02 -0.33539030493E+02 -0.41107111726E+02  0.62858934498E+02  0.00000000000E+00 0. -1.
          1    1    1    2  502    0  0.30787280137E+02  0.63152057429E+02 -0.95417961052E+01  0.70901938258E+02  0.00000000000E+00 0. -1.
         22    1    1    2    0    0 -0.21232593364E+02  0.26796717485E+01 -0.32103756961E+02  0.38583090502E+02  0.00000000000E+00 0.  1.
         22    1    1    2    0    0  0.24158581317E+02 -0.32292698685E+02  0.10061073808E+03  0.10839269374E+03  0.00000000000E+00 0. -1.
</event>
<event>
 6    1  0.4069520E-005  0.2047828E+03  0.7818608E-02  0.1173736E+00
          2   -1    0    0  502    0  0.00000000000E+00  0.00000000000E+00  0.43559253053E+03  0.43559253053E+03  0.00000000000E+00 0. -1.
          1   -1    0    0  501    0 -0.00000000000E+00 -0.00000000000E+00 -0.28621771172E+03  0.28621771172E+03  0.00000000000E+00 0. -1.
          2    1    1    2  501    0 -0.12794945314E+03  0.83564271186E+02 -0.10323884425E+03  0.18442426343E+03  0.00000000000E+00 0. -1.
          1    1    1    2  502    0  0.24489711820E+03 -0.14998488233E+03  0.15959685090E+03  0.32854408875E+03  0.00000000000E+00 0. -1.
         22    1    1    2    0    0 -0.16169645906E+02  0.31229480905E+02 -0.29817219791E+02  0.46106447731E+02  0.00000000000E+00 0. -1.
         22    1    1    2    0    0 -0.10077801916E+03  0.35191130243E+02  0.12283403195E+03  0.16273544235E+03  0.00000000000E+00 0. -1.
</event>
<event>
 6    1  0.4069520E-005  0.8560192E+02  0.7818608E-02  0.1383682E+00
          2   -1    0    0  502    0  0.00000000000E+00  0.00000000000E+00  0.33434599217E+02  0.33434599217E+02  0.00000000000E+00 0.  1.
          1   -1    0    0  501    0 -0.00000000000E+00 -0.00000000000E+00 -0.62243404154E+03  0.62243404154E+03  0.00000000000E+00 0.  1.
          2    1    1    2  501    0 -0.48287587638E+01 -0.22921993233E+02 -0.33593542667E+03  0.33675116270E+03  0.00000000000E+00 0.  1.
          1    1    1    2  502    0  0.14181842923E+02 -0.30763436175E+02 -0.13823428068E+03  0.14232438312E+03  0.00000000000E+00 0.  1.
         22    1    1    2    0    0  0.17988053830E+02  0.18675758278E+02  0.21326816800E+02  0.33573607830E+02  0.00000000000E+00 0.  1.
         22    1    1    2    0    0 -0.27341137989E+02  0.35009671130E+02 -0.13615655176E+03  0.14321948711E+03  0.00000000000E+00 0.  1.
</event>
<event>
 6    1  0.4069520E-005  0.6543677E+02  0.7818608E-02  0.1403530E+00
          2   -1    0    0  502    0  0.00000000000E+00  0.00000000000E+00  0.75145683118E+02  0.75145683118E+02  0.00000000000E+00 0. -1.
          1   -1    0    0  501    0 -0.00000000000E+00 -0.00000000000E+00 -0.89585660307E+03  0.89585660307E+03  0.00000000000E+00 0.  1.
          2    1    1    2  501    0 -0.18333407559E+02 -0.10741586833E+02 -0.29219590550E+02  0.36128658878E+02  0.00000000000E+00 0. -1.
          1    1    1    2  502    0  0.23661244076E+02  0.10300274989E+02 -0.80556074377E+03  0.80597398347E+03  0.00000000000E+00 0.  1.
         22    1    1    2    0    0  0.54711991452E+01 -0.42458361287E+02  0.54271456731E+02  0.69123349738E+02  0.00000000000E+00 0. -1.
         22    1    1    2    0    0 -0.10799035662E+02  0.42899673131E+02 -0.40202042368E+02  0.59776294101E+02  0.00000000000E+00 0. -1.
</event>
<event>
 6    1  0.4069520E-005  0.1894739E+03  0.7818608E-02  0.1267061E+00
          2   -1    0    0  502    0  0.00000000000E+00  0.00000000000E+00  0.24946106507E+03  0.24946106507E+03  0.00000000000E+00 0.  1.
          1   -1    0    0  501    0 -0.00000000000E+00 -0.00000000000E+00 -0.20921653056E+03  0.20921653056E+03  0.00000000000E+00 0.  1.
          2    1    1    2  501    0 -0.19117194993E+02 -0.22379080976E+02 -0.20217236891E+02  0.35707521298E+02  0.00000000000E+00 0.  1.
          1    1    1    2  502    0 -0.57799961841E+02 -0.77832543501E+02 -0.12891036739E+03  0.16129669320E+03  0.00000000000E+00 0.  1.
         22    1    1    2    0    0  0.93144213217E+02  0.11001959191E+03  0.11351495870E+03  0.18348242670E+03  0.00000000000E+00 0.  1.
         22    1    1    2    0    0 -0.16227056382E+02 -0.98079674369E+01  0.75857180087E+02  0.78190954431E+02  0.00000000000E+00 0. -1.
</event>
<event>
 6    1  0.4069520E-005  0.1164946E+03  0.7818608E-02  0.1283277E+00
          2   -1    0    0  502    0  0.00000000000E+00  0.00000000000E+00  0.92503026427E+02  0.92503026427E+02  0.00000000000E+00 0. -1.
          1   -1    0    0  501    0 -0.00000000000E+00 -0.00000000000E+00 -0.11049542166E+04  0.11049542166E+04  0.00000000000E+00 0. -1.
          2    1    1    2  501    0 -0.32444898187E+02 -0.64746871513E+02 -0.48943437632E+02  0.87408745994E+02  0.00000000000E+00 0. -1.
          1    1    1    2  502    0  0.25483159397E+02  0.10451447564E+03 -0.97573937465E+03  0.98165166646E+03  0.00000000000E+00 0. -1.
         22    1    1    2    0    0  0.56982115187E+02 -0.18055590803E+02  0.35042210161E+02  0.69288688135E+02  0.00000000000E+00 0. -1.
         22    1    1    2    0    0 -0.50020376398E+02 -0.21712013328E+02 -0.22810588095E+02  0.59108142476E+02  0.00000000000E+00 0.  1.
</event>
<event>
 6    1  0.4069520E-005  0.9794689E+02  0.7818608E-02  0.1286889E+00
          2   -1    0    0  502    0  0.00000000000E+00  0.00000000000E+00  0.19361921828E+03  0.19361921828E+03  0.00000000000E+00 0. -1.
          1   -1    0    0  501    0 -0.00000000000E+00 -0.00000000000E+00 -0.80512195516E+02  0.80512195516E+02  0.00000000000E+00 0. -1.
          2    1    1    2  501    0  0.36221253307E+02 -0.50241729013E+02  0.88165023256E+02  0.10774637744E+03  0.00000000000E+00 0. -1.
          1    1    1    2  502    0 -0.71664345752E+01 -0.19319899476E+02  0.40679662618E+01  0.21003919867E+02  0.00000000000E+00 0. -1.
         22    1    1    2    0    0  0.44863169416E+01 -0.30607478780E+02  0.24836839776E+02  0.39671317183E+02  0.00000000000E+00 0. -1.
         22    1    1    2    0    0 -0.33541135673E+02  0.10016910727E+03 -0.39628065318E+01  0.10570979930E+03  0.00000000000E+00 0. -1.
</event>
<event>
 6    1  0.4069520E-005  0.8548492E+02  0.7818608E-02  0.1317788E+00
          2   -1    0    0  502    0  0.00000000000E+00  0.00000000000E+00  0.34762078944E+03  0.34762078944E+03  0.00000000000E+00 0.  1.
          1   -1    0    0  501    0 -0.00000000000E+00 -0.00000000000E+00 -0.35615579722E+02  0.35615579722E+02  0.00000000000E+00 0.  1.
          2    1    1    2  501    0 -0.31837452536E+02 -0.18180207035E+02  0.13778635660E+02  0.39166236894E+02  0.00000000000E+00 0.  1.
          1    1    1    2  502    0  0.38153419048E+02  0.17664181344E+02  0.62808917404E+02  0.75582185686E+02  0.00000000000E+00 0.  1.
         22    1    1    2    0    0 -0.67157243704E+02  0.85885922216E+01  0.12168198383E+03  0.13924928900E+03  0.00000000000E+00 0.  1.
         22    1    1    2    0    0  0.60841277192E+02 -0.80725665314E+01  0.11373567282E+03  0.12923865758E+03  0.00000000000E+00 0. -1.
</event>
<event>
 6    1  0.4069520E-005  0.1058015E+03  0.7818608E-02  0.1270016E+00
          2   -1    0    0  502    0  0.00000000000E+00  0.00000000000E+00  0.39391703437E+03  0.39391703437E+03  0.00000000000E+00 0.  1.
          1   -1    0    0  501    0 -0.00000000000E+00 -0.00000000000E+00 -0.49237016702E+03  0.49237016702E+03  0.00000000000E+00 0.  1.
          2    1    1    2  501    0 -0.38448114855E+02 -0.71010462104E+02  0.79537970263E+02  0.11334474835E+03  0.00000000000E+00 0.  1.
          1    1    1    2  502    0  0.19497163630E+02  0.94580811876E+01 -0.45790280594E+03  0.45841528594E+03  0.00000000000E+00 0.  1.
         22    1    1    2    0    0 -0.10399597434E+01 -0.35448092319E+02  0.32794858885E+02  0.48302707322E+02  0.00000000000E+00 0.  1.
         22    1    1    2    0    0  0.19990910968E+02  0.97000473236E+02  0.24711684414E+03  0.26622445978E+03  0.00000000000E+00 0. -1.
</event>
<event>
 6    1  0.4069520E-005  0.3578205E+03  0.7818608E-02  0.1173228E+00
          2   -1    0    0  502    0  0.00000000000E+00  0.00000000000E+00  0.15339953815E+03  0.15339953815E+03  0.00000000000E+00 0.  1.
          1   -1    0    0  501    0 -0.00000000000E+00 -0.00000000000E+00 -0.46048811856E+03  0.46048811856E+03  0.00000000000E+00 0. -1.
          2    1    1    2  501    0  0.50800830242E+02  0.15633825886E+03 -0.16101732096E+03  0.23010639536E+03  0.00000000000E+00 0.  1.
          1    1    1    2  502    0 -0.23948654096E+02 -0.16879179240E+02 -0.18631143616E+03  0.18860115580E+03  0.00000000000E+00 0. -1.
         22    1    1    2    0    0 -0.43116797534E+02 -0.15150903382E+03  0.87784575554E+01  0.15776915692E+03  0.00000000000E+00 0.  1.
         22    1    1    2    0    0  0.16264621388E+02  0.12049954199E+02  0.31461719163E+02  0.37410948635E+02  0.00000000000E+00 0.  1.
</event>
<event>
 6    1  0.4069520E-005  0.2810359E+03  0.7818608E-02  0.1096291E+00
          2   -1    0    0  502    0  0.00000000000E+00  0.00000000000E+00  0.11094733385E+03  0.11094733385E+03  0.00000000000E+00 0. -1.
          1   -1    0    0  501    0 -0.00000000000E+00 -0.00000000000E+00 -0.96078909120E+03  0.96078909120E+03  0.00000000000E+00 0. -1.
          2    1    1    2  501    0  0.86535681823E+01 -0.27419338349E+03 -0.37476581057E+03  0.46444193239E+03  0.00000000000E+00 0. -1.
          1    1    1    2  502    0  0.58287082824E+02  0.32333864741E+02 -0.20828133054E+03  0.21868693487E+03  0.00000000000E+00 0. -1.
         22    1    1    2    0    0 -0.64748299992E+02  0.25582402096E+03 -0.26562115877E+03  0.37442338607E+03  0.00000000000E+00 0. -1.
         22    1    1    2    0    0 -0.21923510142E+01 -0.13964502211E+02 -0.11734574641E+01  0.14184171720E+02  0.00000000000E+00 0. -1.
</event>
<event>
 6    1  0.4069520E-005  0.4340791E+03  0.7818608E-02  0.1129496E+00
          2   -1    0    0  502    0  0.00000000000E+00  0.00000000000E+00  0.99096675808E+02  0.99096675808E+02  0.00000000000E+00 0. -1.
          1   -1    0    0  501    0 -0.00000000000E+00 -0.00000000000E+00 -0.16958583831E+04  0.16958583831E+04  0.00000000000E+00 0. -1.
          2    1    1    2  501    0 -0.18048231583E+03  0.22485527584E+03 -0.55452785642E+03  0.62500792391E+03  0.00000000000E+00 0. -1.
          1    1    1    2  502    0  0.33706154774E+02 -0.27668802108E+03 -0.83873114310E+03  0.88383386238E+03  0.00000000000E+00 0. -1.
         22    1    1    2    0    0  0.13159321283E+03  0.23790608984E+02 -0.21416748223E+03  0.25248856842E+03  0.00000000000E+00 0. -1.
         22    1    1    2    0    0  0.15182948224E+02  0.28042136255E+02  0.10664774407E+02  0.33624704247E+02  0.00000000000E+00 0.  1.
</event>
<event>
 6    1  0.4069520E-005  0.1214392E+03  0.7818608E-02  0.1279743E+00
          2   -1    0    0  502    0  0.00000000000E+00  0.00000000000E+00  0.30919936234E+03  0.30919936234E+03  0.00000000000E+00 0. -1.
          1   -1    0    0  501    0 -0.00000000000E+00 -0.00000000000E+00 -0.11921170720E+03  0.11921170720E+03  0.00000000000E+00 0. -1.
          2    1    1    2  501    0 -0.60465651321E+01  0.24051545810E+02 -0.10945601416E+01  0.24824098527E+02  0.00000000000E+00 0. -1.
          1    1    1    2  502    0 -0.34475819438E+02 -0.22411529924E+02 -0.86277886180E+02  0.95575794232E+02  0.00000000000E+00 0. -1.
         22    1    1    2    0    0 -0.43175009235E+02 -0.18099643017E+02  0.75061619568E+02  0.88464259631E+02  0.00000000000E+00 0.  1.
         22    1    1    2    0    0  0.83697393806E+02  0.16459627131E+02  0.20229848189E+03  0.21954691715E+03  0.00000000000E+00 0. -1.
</event>
<event>
 6    1  0.4069520E-005  0.5572793E+02  0.7818608E-02  0.1422693E+00
          2   -1    0    0  502    0  0.00000000000E+00  0.00000000000E+00  0.18754740306E+03  0.18754740306E+03  0.00000000000E+00 0. -1.
          1   -1    0    0  501    0 -0.00000000000E+00 -0.00000000000E+00 -0.15504387177E+04  0.15504387177E+04  0.00000000000E+00 0. -1.
          2    1    1    2  501    0  0.28478497870E+02 -0.28377175060E+02 -0.34784823809E+01  0.40353299060E+02  0.00000000000E+00 0. -1.
          1    1    1    2  502    0  0.90291192030E+01  0.25497177424E+02 -0.15022620498E+04  0.15025055398E+04  0.00000000000E+00 0. -1.
         22    1    1    2    0    0 -0.46272341105E+02  0.20463885452E+02  0.16076459783E+03  0.16853829261E+03  0.00000000000E+00 0. -1.
         22    1    1    2    0    0  0.87647240319E+01 -0.17583887815E+02 -0.17915380327E+02  0.26588989268E+02  0.00000000000E+00 0. -1.
</event>
<event>
 6    1  0.4069520E-005  0.3527315E+03  0.7818608E-02  0.1145767E+00
          2   -1    0    0  502    0  0.00000000000E+00  0.00000000000E+00  0.33602403067E+03  0.33602403067E+03  0.00000000000E+00 0. -1.
          1   -1    0    0  501    0 -0.00000000000E+00 -0.00000000000E+00 -0.45794175618E+03  0.45794175618E+03  0.00000000000E+00 0. -1.
          2    1    1    2  501    0  0.25586863856E+02  0.31932584096E+02 -0.10753860727E+03  0.11506054746E+03  0.00000000000E+00 0. -1.
          1    1    1    2  502    0 -0.62238606381E+02 -0.52921517054E+02 -0.32736165839E+03  0.33740181753E+03  0.00000000000E+00 0. -1.
         22    1    1    2    0    0  0.71270012429E+02  0.41169082328E+02  0.27202649839E+03  0.28420542542E+03  0.00000000000E+00 0. -1.
         22    1    1    2    0    0 -0.34618269905E+02 -0.20180149370E+02  0.40956041746E+02  0.57297996434E+02  0.00000000000E+00 0.  1.
</event>
<event>
 6    1  0.4069520E-005  0.1658879E+03  0.7818608E-02  0.1260750E+00
          2   -1    0    0  502    0  0.00000000000E+00  0.00000000000E+00  0.14932354210E+03  0.14932354210E+03  0.00000000000E+00 0. -1.
          1   -1    0    0  501    0 -0.00000000000E+00 -0.00000000000E+00 -0.41840244046E+03  0.41840244046E+03  0.00000000000E+00 0. -1.
          2    1    1    2  501    0  0.68860826102E+02  0.75587699946E+02 -0.87551513620E+02  0.13461270851E+03  0.00000000000E+00 0. -1.
          1    1    1    2  502    0 -0.11698275005E+03 -0.12182451173E+03 -0.23064036508E+03  0.28586911948E+03  0.00000000000E+00 0. -1.
         22    1    1    2    0    0  0.16598005416E+02  0.51489383106E+02 -0.30042534809E+02  0.61880564429E+02  0.00000000000E+00 0. -1.
         22    1    1    2    0    0  0.31523918530E+02 -0.52525713257E+01  0.79155515146E+02  0.85363590148E+02  0.00000000000E+00 0.  1.
</event>
<event>
 6    1  0.4069520E-005  0.1995200E+03  0.7818608E-02  0.1228755E+00
          2   -1    0    0  502    0  0.00000000000E+00  0.00000000000E+00  0.61615836778E+02  0.61615836778E+02  0.00000000000E+00 0.  1.
          1   -1    0    0  501    0 -0.00000000000E+00 -0.00000000000E+00 -0.89013745018E+03  0.89013745018E+03  0.00000000000E+00 0. -1.
          2    1    1    2  501    0  0.11949472144E+02 -0.46780615693E+02 -0.15942299392E+03  0.16657402823E+03  0.00000000000E+00 0.  1.
          1    1    1    2  502    0 -0.79611505606E+02  0.84725418105E+02 -0.61647707958E+03  0.62734390723E+03  0.00000000000E+00 0. -1.
         22    1    1    2    0    0  0.35537227676E+02 -0.51849588754E+02  0.28848860388E+02  0.69163076497E+02  0.00000000000E+00 0.  1.
         22    1    1    2    0    0  0.32124805786E+02  0.13904786342E+02 -0.81470400292E+02  0.88672275001E+02  0.00000000000E+00 0.  1.
</event>
<event>
 6    1  0.4069520E-005  0.8266277E+02  0.7818608E-02  0.1360852E+00
          2   -1    0    0  502    0  0.00000000000E+00  0.00000000000E+00  0.24292094926E+03  0.24292094926E+03  0.00000000000E+00 0.  1.
          1   -1    0    0  501    0 -0.00000000000E+00 -0.00000000000E+00 -0.22808975153E+04  0.22808975153E+04  0.00000000000E+00 0. -1.
          2    1    1    2  501    0 -0.51550060631E+02 -0.25951151657E+02  0.10099890020E+02  0.58590774033E+02  0.00000000000E+00 0.  1.
          1    1    1    2  502    0  0.55502706699E+02  0.56274880033E+02 -0.22371055044E+04  0.22385013849E+04  0.00000000000E+00 0. -1.
         22    1    1    2    0    0  0.26855722810E+02 -0.32251527041E+02  0.19122813961E+03  0.19577944791E+03  0.00000000000E+00 0.  1.
         22    1    1    2    0    0 -0.30808368878E+02  0.19277986646E+01 -0.21990913140E+01  0.30946857728E+02  0.00000000000E+00 0.  1.
</event>
<event>
 6    1  0.4069520E-005  0.2747828E+03  0.7818608E-02  0.1218188E+00
          2   -1    0    0  502    0  0.00000000000E+00  0.00000000000E+00  0.32717481237E+02  0.32717481237E+02  0.00000000000E+00 0.  1.
          1   -1    0    0  501    0 -0.00000000000E+00 -0.00000000000E+00 -0.18650797404E+04  0.18650797404E+04  0.00000000000E+00 0.  1.
          2    1    1    2  501    0  0.53613290935E+02  0.45723708936E+02 -0.20609198671E+03  0.21780484271E+03  0.00000000000E+00 0.  1.
          1    1    1    2  502    0  0.14363949997E+03 -0.31750683993E+02 -0.10161449771E+04  0.10267380515E+04  0.00000000000E+00 0.  1.
         22    1    1    2    0    0  0.70662629893E+01  0.15140074655E+02 -0.12129895402E+02  0.20646750245E+02  0.00000000000E+00 0. -1.
         22    1    1    2    0    0 -0.20431905389E+03 -0.29113099599E+02 -0.59799539990E+03  0.63260757714E+03  0.00000000000E+00 0.  1.
</event>
<event>
 6    1  0.4069520E-005  0.1513490E+03  0.7818608E-02  0.1250993E+00
          2   -1    0    0  502    0  0.00000000000E+00  0.00000000000E+00  0.10892586652E+03  0.10892586652E+03  0.00000000000E+00 0.  1.
          1   -1    0    0  501    0 -0.00000000000E+00 -0.00000000000E+00 -0.29126505681E+03  0.29126505681E+03  0.00000000000E+00 0.  1.
          2    1    1    2  501    0  0.39404254326E+02 -0.38441358857E+02  0.22368859517E+01  0.55094800014E+02  0.00000000000E+00 0.  1.
          1    1    1    2  502    0 -0.10022923891E+03  0.93351610693E+02 -0.65431757944E+02  0.15179505427E+03  0.00000000000E+00 0.  1.
         22    1    1    2    0    0  0.27687246666E+02 -0.93735279481E+02 -0.58005425826E+02  0.11365524921E+03  0.00000000000E+00 0.  1.
         22    1    1    2    0    0  0.33137737920E+02  0.38825027644E+02 -0.61138892469E+02  0.79645819842E+02  0.00000000000E+00 0.  1.
</event>
<event>
 6    1  0.4069520E-005  0.1394108E+03  0.7818608E-02  0.1259508E+00
          2   -1    0    0  502    0  0.00000000000E+00  0.00000000000E+00  0.15323586076E+02  0.15323586076E+02  0.00000000000E+00 0. -1.
          1   -1    0    0  501    0 -0.00000000000E+00 -0.00000000000E+00 -0.43926957483E+04  0.43926957483E+04  0.00000000000E+00 0. -1.
          2    1    1    2  501    0  0.55176187015E+02 -0.64402895576E+02 -0.40412667404E+03  0.41292918672E+03  0.00000000000E+00 0. -1.
          1    1    1    2  502    0 -0.64382645470E+02  0.11966604789E+03 -0.35222702934E+04  0.35248905100E+04  0.00000000000E+00 0. -1.
         22    1    1    2    0    0 -0.48756745069E+02 -0.25828667343E+02 -0.10977096440E+03  0.12285766102E+03  0.00000000000E+00 0. -1.
         22    1    1    2    0    0  0.57963203524E+02 -0.29434484974E+02 -0.34120423034E+03  0.34734197655E+03  0.00000000000E+00 0. -1.
</event>
<event>
 6    1  0.4069520E-005  0.5668221E+02  0.7818608E-02  0.1418741E+00
          2   -1    0    0  502    0  0.00000000000E+00  0.00000000000E+00  0.47327323730E+02  0.47327323730E+02  0.00000000000E+00 0.  1.
          1   -1    0    0  501    0 -0.00000000000E+00 -0.00000000000E+00 -0.20673128601E+04  0.20673128601E+04  0.00000000000E+00 0.  1.
          2    1    1    2  501    0  0.47960818271E+02 -0.27430309005E+02 -0.17541683471E+03  0.18391228301E+03  0.00000000000E+00 0.  1.
          1    1    1    2  502    0 -0.46978793209E+02  0.71349353109E+00 -0.17965205328E+04  0.17971348143E+04  0.00000000000E+00 0.  1.
         22    1    1    2    0    0 -0.10394039775E+02  0.49559519241E+02  0.25005232723E+02  0.56475159795E+02  0.00000000000E+00 0.  1.
         22    1    1    2    0    0  0.94120147135E+01 -0.22842703767E+02 -0.73053401609E+02  0.77117926729E+02  0.00000000000E+00 0.  1.
</event>
<event>
 6    1  0.4069520E-005  0.3202049E+03  0.7818608E-02  0.1182749E+00
          2   -1    0    0  502    0  0.00000000000E+00  0.00000000000E+00  0.11514096548E+03  0.11514096548E+03  0.00000000000E+00 0.  1.
          1   -1    0    0  501    0 -0.00000000000E+00 -0.00000000000E+00 -0.10196865427E+04  0.10196865427E+04  0.00000000000E+00 0.  1.
          2    1    1    2  501    0 -0.64259160532E+02 -0.80693103973E+02 -0.20748421253E+03  0.23171170707E+03  0.00000000000E+00 0.  1.
          1    1    1    2  502    0  0.35784361705E+02  0.29876580168E+03 -0.25359922016E+03  0.39351504325E+03  0.00000000000E+00 0.  1.
         22    1    1    2    0    0  0.48777029469E+02 -0.20772538027E+03 -0.43635502421E+03  0.48573113897E+03  0.00000000000E+00 0.  1.
         22    1    1    2    0    0 -0.20302230642E+02 -0.10347317435E+02 -0.71071203159E+01  0.23869618897E+02  0.00000000000E+00 0. -1.
</event>
<event>
 6    1  0.4069520E-005  0.6723396E+02  0.7818608E-02  0.1371393E+00
          2   -1    0    0  502    0  0.00000000000E+00  0.00000000000E+00  0.18341620933E+03  0.18341620933E+03  0.00000000000E+00 0.  1.
          1   -1    0    0  501    0 -0.00000000000E+00 -0.00000000000E+00 -0.72168608006E+03  0.72168608006E+03  0.00000000000E+00 0. -1.
          2    1    1    2  501    0 -0.17356034802E+02 -0.33017038464E+02  0.64729933260E+02  0.74708239391E+02  0.00000000000E+00 0.  1.
          1    1    1    2  502    0 -0.11170466655E+02  0.21370798209E+02 -0.68200347339E+03  0.68242965063E+03  0.00000000000E+00 0. -1.
         22    1    1    2    0    0 -0.96127333486E+01 -0.29766041494E+02  0.85736449233E+02  0.91264235031E+02  0.00000000000E+00 0.  1.
         22    1    1    2    0    0  0.38139234805E+02  0.41412281749E+02 -0.67327798349E+01  0.56700164334E+02  0.00000000000E+00 0. -1.
</event>
<event>
 6    1  0.4069520E-005  0.8364523E+02  0.7818608E-02  0.1378111E+00
          2   -1    0    0  502    0  0.00000000000E+00  0.00000000000E+00  0.37399924637E+02  0.37399924637E+02  0.00000000000E+00 0. -1.
          1   -1    0    0  501    0 -0.00000000000E+00 -0.00000000000E+00 -0.56257757346E+03  0.56257757346E+03  0.00000000000E+00 0. -1.
          2    1    1    2  501    0 -0.18000015131E+02 -0.31290105124E+02 -0.72013667146E+02  0.80554574539E+02  0.00000000000E+00 0. -1.
          1    1    1    2  502    0 -0.12144061316E+02  0.68987243511E+02 -0.32916515396E+03  0.33653590681E+03  0.00000000000E+00 0. -1.
         22    1    1    2    0    0  0.14684509184E+02 -0.63910523364E+02 -0.13535606659E+03  0.15040430370E+03  0.00000000000E+00 0. -1.
         22    1    1    2    0    0  0.15459567263E+02  0.26213384977E+02  0.11357238879E+02  0.32482713046E+02  0.00000000000E+00 0. -1.
</event>
<event>
 6    1  0.4069520E-005  0.7308069E+02  0.7818608E-02  0.1355196E+00
          2   -1    0    0  502    0  0.00000000000E+00  0.00000000000E+00  0.41986116523E+03  0.41986116523E+03  0.00000000000E+00 0.  1.
          1   -1    0    0  501    0 -0.00000000000E+00 -0.00000000000E+00 -0.12359224530E+04  0.12359224530E+04  0.00000000000E+00 0.  1.
          2    1    1    2  501    0 -0.32131850560E+02  0.25254262195E+02  0.48032318459E+00  0.40871313776E+02  0.00000000000E+00 0.  1.
          1    1    1    2  502    0  0.19315507680E+02  0.12744441567E+02 -0.12044304791E+04  0.12046527669E+04  0.00000000000E+00 0.  1.
         22    1    1    2    0    0 -0.47874358754E+01  0.27143721407E+02  0.15130264580E+02  0.31442424530E+02  0.00000000000E+00 0.  1.
         22    1    1    2    0    0  0.17603778756E+02 -0.65142425168E+02  0.37275860361E+03  0.37881711306E+03  0.00000000000E+00 0.  1.
</event>
<event>
 6    1  0.4069520E-005  0.1068102E+03  0.7818608E-02  0.1311526E+00
          2   -1    0    0  502    0  0.00000000000E+00  0.00000000000E+00  0.17309787765E+03  0.17309787765E+03  0.00000000000E+00 0. -1.
          1   -1    0    0  501    0 -0.00000000000E+00 -0.00000000000E+00 -0.37348205047E+03  0.37348205047E+03  0.00000000000E+00 0. -1.
          2    1    1    2  501    0  0.76706496494E+02 -0.51793431612E+02 -0.30678149147E+03  0.32043927611E+03  0.00000000000E+00 0. -1.
          1    1    1    2  502    0 -0.48620004130E+02  0.47872079131E+02  0.37265099756E+02  0.77745279096E+02  0.00000000000E+00 0. -1.
         22    1    1    2    0    0 -0.45198644712E+02  0.83789214920E+01  0.10154914023E+03  0.11146906159E+03  0.00000000000E+00 0. -1.
         22    1    1    2    0    0  0.17112152348E+02 -0.44575690110E+01 -0.32416921340E+02  0.36926311332E+02  0.00000000000E+00 0. -1.
</event>
<event>
 6    1  0.4069520E-005  0.7595616E+02  0.7818608E-02  0.1398873E+00
          2   -1    0    0  502    0  0.00000000000E+00  0.00000000000E+00  0.51259398150E+02  0.51259398150E+02  0.00000000000E+00 0.  1.
          1   -1    0    0  501    0 -0.00000000000E+00 -0.00000000000E+00 -0.29414780576E+03  0.29414780576E+03  0.00000000000E+00 0.  1.
          2    1    1    2  501    0 -0.13239348789E+02  0.36265693050E+02 -0.76421874274E+02  0.85619996007E+02  0.00000000000E+00 0.  1.
          1    1    1    2  502    0  0.35220590060E+02 -0.49539032714E+02 -0.96149406849E+02  0.11375110621E+03  0.00000000000E+00 0.  1.
         22    1    1    2    0    0  0.15503424444E+02 -0.24613958314E+02  0.23993322021E+02  0.37707858796E+02  0.00000000000E+00 0.  1.
         22    1    1    2    0    0 -0.37484665715E+02  0.37887297978E+02 -0.94310448510E+02  0.10832824290E+03  0.00000000000E+00 0.  1.
</event>
<event>
 6    1  0.4069520E-005  0.1896092E+03  0.7818608E-02  0.1229734E+00
          2   -1    0    0  502    0  0.00000000000E+00  0.00000000000E+00  0.40852537957E+02  0.40852537957E+02  0.00000000000E+00 0. -1.
          1   -1    0    0  501    0 -0.00000000000E+00 -0.00000000000E+00 -0.45282187591E+03  0.45282187591E+03  0.00000000000E+00 0. -1.
          2    1    1    2  501    0 -0.21913433247E+02  0.11498519327E+01 -0.24863387824E+03  0.24960033278E+03  0.00000000000E+00 0. -1.
          1    1    1    2  502    0  0.20828443784E+02  0.17808171065E+02 -0.10420061640E+03  0.10774378629E+03  0.00000000000E+00 0. -1.
         22    1    1    2    0    0  0.44595011746E+02 -0.24402137897E+02  0.12491972207E+02  0.52347194540E+02  0.00000000000E+00 0. -1.
         22    1    1    2    0    0 -0.43510022283E+02  0.54441148988E+01 -0.71626815525E+02  0.83983100254E+02  0.00000000000E+00 0.  1.
</event>
<event>
 6    1  0.4069520E-005  0.1345312E+03  0.7818608E-02  0.1306186E+00
          2   -1    0    0  502    0  0.00000000000E+00  0.00000000000E+00  0.32589315936E+02  0.32589315936E+02  0.00000000000E+00 0. -1.
          1   -1    0    0  501    0 -0.00000000000E+00 -0.00000000000E+00 -0.11804398457E+04  0.11804398457E+04  0.00000000000E+00 0. -1.
          2    1    1    2  501    0  0.27142827026E+02  0.72560846174E+01 -0.12155989862E+03  0.12476454935E+03  0.00000000000E+00 0. -1.
          1    1    1    2  502    0  0.26297002889E+02  0.68026695028E+01 -0.90752660126E+03  0.90793300451E+03  0.00000000000E+00 0. -1.
         22    1    1    2    0    0 -0.11676654290E+01 -0.25323803970E+02 -0.12403599731E+03  0.12660010710E+03  0.00000000000E+00 0. -1.
         22    1    1    2    0    0 -0.52272164486E+02  0.11265049850E+02  0.52719673917E+01  0.53731500709E+02  0.00000000000E+00 0. -1.
</event>
<event>
 6    1  0.4069520E-005  0.1244505E+03  0.7818608E-02  0.1315337E+00
          2   -1    0    0  502    0  0.00000000000E+00  0.00000000000E+00  0.14551074319E+03  0.14551074319E+03  0.00000000000E+00 0.  1.
          1   -1    0    0  501    0 -0.00000000000E+00 -0.00000000000E+00 -0.37273707718E+03  0.37273707718E+03  0.00000000000E+00 0.  1.
          2    1    1    2  501    0 -0.54357574896E+02  0.79635790851E+02 -0.13656355794E+03  0.16717120114E+03  0.00000000000E+00 0.  1.
          1    1    1    2  502    0  0.10218877299E+03 -0.78015710521E+02 -0.15930505329E+03  0.20471222831E+03  0.00000000000E+00 0.  1.
         22    1    1    2    0    0 -0.21141521951E+02  0.32413455941E+01 -0.34016252938E+02  0.40181783628E+02  0.00000000000E+00 0.  1.
         22    1    1    2    0    0 -0.26689676146E+02 -0.48614259242E+01  0.10265853018E+03  0.10618260730E+03  0.00000000000E+00 0.  1.
</event>
<event>
 6    1  0.4069520E-005  0.1464446E+03  0.7818608E-02  0.1266827E+00
          2   -1    0    0  502    0  0.00000000000E+00  0.00000000000E+00  0.75477479315E+03  0.75477479315E+03  0.00000000000E+00 0. -1.
          1   -1    0    0  501    0 -0.00000000000E+00 -0.00000000000E+00 -0.63379973278E+02  0.63379973278E+02  0.00000000000E+00 0. -1.
          2    1    1    2  501    0  0.63476312132E+02  0.25389538259E+02  0.10669781357E+03  0.12672132526E+03  0.00000000000E+00 0. -1.
          1    1    1    2  502    0 -0.87423262125E+02  0.11582878157E+02 -0.45749731467E+01  0.88305833364E+02  0.00000000000E+00 0. -1.
         22    1    1    2    0    0  0.51448543827E+02 -0.67721404544E+02  0.34064229143E+03  0.35109872117E+03  0.00000000000E+00 0. -1.
         22    1    1    2    0    0 -0.27501593835E+02  0.30748988128E+02  0.24862968802E+03  0.25202888664E+03  0.00000000000E+00 0.  1.
</event>
<event>
 6    1  0.4069520E-005  0.7257352E+02  0.7818608E-02  0.1402630E+00
          2   -1    0    0  502    0  0.00000000000E+00  0.00000000000E+00  0.14461755460E+03  0.14461755460E+03  0.00000000000E+00 0.  1.
          1   -1    0    0  501    0 -0.00000000000E+00 -0.00000000000E+00 -0.39403647976E+03  0.39403647976E+03  0.00000000000E+00 0. -1.
          2    1    1    2  501    0  0.46817255530E+02  0.13202784749E+02 -0.62448439971E+02  0.79157921873E+02  0.00000000000E+00 0.  1.
          1    1    1    2  502    0 -0.30426487291E+02 -0.30094225503E+01 -0.29108516064E+03  0.29268651916E+03  0.00000000000E+00 0. -1.
         22    1    1    2    0    0 -0.19736941081E+02  0.21052901668E+02 -0.22349013280E+02  0.36499998719E+02  0.00000000000E+00 0. -1.
         22    1    1    2    0    0  0.33461728423E+01 -0.31246263867E+02  0.12646368873E+03  0.13030959460E+03  0.00000000000E+00 0.  1.
</event>
<event>
 6    1  0.4069520E-005  0.1960888E+03  0.7818608E-02  0.1153578E+00
          2   -1    0    0  502    0  0.00000000000E+00  0.00000000000E+00  0.55053576247E+02  0.55053576247E+02  0.00000000000E+00 0. -1.
          1   -1    0    0  501    0 -0.00000000000E+00 -0.00000000000E+00 -0.10604060180E+04  0.10604060180E+04  0.00000000000E+00 0. -1.
          2    1    1    2  501    0 -0.17763521234E+03  0.22935535702E+02 -0.33849827382E+03  0.38296395240E+03  0.00000000000E+00 0. -1.
          1    1    1    2  502    0  0.74920938478E+01 -0.58048105547E+02 -0.31115672534E+03  0.31661367903E+03  0.00000000000E+00 0. -1.
         22    1    1    2    0    0  0.18971209153E+03  0.42550002247E+02 -0.31661383671E+03  0.37154475096E+03  0.00000000000E+00 0. -1.
         22    1    1    2    0    0 -0.19568973046E+02 -0.74374324032E+01 -0.39083605915E+02  0.44337211889E+02  0.00000000000E+00 0. -1.
</event>
<event>
 6    1  0.4069520E-005  0.4017651E+03  0.7818608E-02  0.1175780E+00
          2   -1    0    0  502    0  0.00000000000E+00  0.00000000000E+00  0.32955354332E+03  0.32955354332E+03  0.00000000000E+00 0.  1.
          1   -1    0    0  501    0 -0.00000000000E+00 -0.00000000000E+00 -0.16005824292E+04  0.16005824292E+04  0.00000000000E+00 0.  1.
          2    1    1    2  501    0  0.19322100893E+03 -0.84868163251E+02  0.17016373201E+02  0.21172274414E+03  0.00000000000E+00 0.  1.
          1    1    1    2  502    0 -0.32201821086E+02  0.50979940433E+02 -0.14528512113E+04  0.14541019750E+04  0.00000000000E+00 0.  1.
         22    1    1    2    0    0  0.10230832044E+02 -0.88006068626E+01  0.54589759044E+02  0.56233107667E+02  0.00000000000E+00 0.  1.
         22    1    1    2    0    0 -0.17125001989E+03  0.42688829680E+02  0.11021619314E+03  0.20807814571E+03  0.00000000000E+00 0.  1.
</event>
<event>
 6    1  0.4069520E-005  0.8857445E+02  0.7818608E-02  0.1322590E+00
          2   -1    0    0  502    0  0.00000000000E+00  0.00000000000E+00  0.75176340447E+03  0.75176340447E+03  0.00000000000E+00 0.  1.
          1   -1    0    0  501    0 -0.00000000000E+00 -0.00000000000E+00 -0.23569101936E+02  0.23569101936E+02  0.00000000000E+00 0.  1.
          2    1    1    2  501    0 -0.40454090267E+02  0.15688559392E+01  0.16132937757E+03  0.16633148468E+03  0.00000000000E+00 0.  1.
          1    1    1    2  502    0  0.40383782794E+02  0.64300072250E+02  0.14026129051E+03  0.15949476110E+03  0.00000000000E+00 0.  1.
         22    1    1    2    0    0 -0.61615855188E+02 -0.42151661672E+02  0.25149025645E+03  0.26233685460E+03  0.00000000000E+00 0.  1.
         22    1    1    2    0    0  0.61686162661E+02 -0.23717266518E+02  0.17511337801E+03  0.18716940603E+03  0.00000000000E+00 0.  1.
</event>
<event>
 6    1  0.4069520E-005  0.1303625E+03  0.7818608E-02  0.1324722E+00
          2   -1    0    0  502    0  0.00000000000E+00  0.00000000000E+00  0.38071735855E+03  0.38071735855E+03  0.00000000000E+00 0. -1.
          1   -1    0    0  501    0 -0.00000000000E+00 -0.00000000000E+00 -0.49285920719E+03  0.49285920719E+03  0.00000000000E+00 0. -1.
          2    1    1    2  501    0 -0.92230640571E+02  0.44725118416E+00 -0.31412990265E+03  0.32739011413E+03  0.00000000000E+00 0. -1.
          1    1    1    2  502    0  0.99804545966E+02 -0.57132342995E+02  0.33658205024E+03  0.35568599713E+03  0.00000000000E+00 0. -1.
         22    1    1    2    0    0 -0.30043198141E+01  0.37256134946E+02 -0.15647888441E+03  0.16088097089E+03  0.00000000000E+00 0.  1.
         22    1    1    2    0    0 -0.45695855813E+01  0.19428956864E+02  0.21884888183E+02  0.29619483588E+02  0.00000000000E+00 0. -1.
</event>
<event>
 6    1  0.4069520E-005  0.1062450E+03  0.7818608E-02  0.1268673E+00
          2   -1    0    0  502    0  0.00000000000E+00  0.00000000000E+00  0.27579916248E+03  0.27579916248E+03  0.00000000000E+00 0. -1.
          1   -1    0    0  501    0 -0.00000000000E+00 -0.00000000000E+00 -0.57586095125E+03  0.57586095125E+03  0.00000000000E+00 0.  1.
          2    1    1    2  501    0 -0.78503135734E+02 -0.27832501264E+02  0.15668570242E+03  0.17744801997E+03  0.00000000000E+00 0. -1.
          1    1    1    2  502    0  0.23847334586E+02  0.32716429686E+02 -0.52428044844E+03  0.52584127715E+03  0.00000000000E+00 0.  1.
         22    1    1    2    0    0  0.85937269282E+02 -0.64707212785E+01  0.15390287886E+02  0.87543962937E+02  0.00000000000E+00 0. -1.
         22    1    1    2    0    0 -0.31281468134E+02  0.15867928560E+01  0.52142669364E+02  0.60826853680E+02  0.00000000000E+00 0. -1.
</event>
<event>
 6    1  0.4069520E-005  0.4643875E+03  0.7818608E-02  0.1093760E+00
          2   -1    0    0  502    0  0.00000000000E+00  0.00000000000E+00  0.76328311130E+03  0.76328311130E+03  0.00000000000E+00 0. -1.
          1   -1    0    0  501    0 -0.00000000000E+00 -0.00000000000E+00 -0.73116485161E+03  0.73116485161E+03  0.00000000000E+00 0. -1.
          2    1    1    2  501    0  0.89411794966E+02  0.31724122162E+03  0.24387052872E+03  0.41001133710E+03  0.00000000000E+00 0. -1.
          1    1    1    2  502    0 -0.47929847388E+00 -0.37550776703E+03 -0.57429336124E+03  0.68616264660E+03  0.00000000000E+00 0. -1.
         22    1    1    2    0    0 -0.64556027055E+02  0.41924798316E+00  0.56278041565E+02  0.85643881044E+02  0.00000000000E+00 0.  1.
         22    1    1    2    0    0 -0.24376469438E+02  0.57847297424E+02  0.30626305065E+03  0.31263009816E+03  0.00000000000E+00 0. -1.
</event>
<event>
 6    1  0.4069520E-005  0.1944205E+03  0.7818608E-02  0.1222052E+00
          2   -1    0    0  502    0  0.00000000000E+00  0.00000000000E+00  0.23053324976E+03  0.23053324976E+03  0.00000000000E+00 0. -1.
          1   -1    0    0  501    0 -0.00000000000E+00 -0.00000000000E+00 -0.14047646180E+04  0.14047646180E+04  0.00000000000E+00 0. -1.
          2    1    1    2  501    0 -0.42735591950E+02  0.63765289663E+02 -0.77921878064E+01  0.77156083207E+02  0.00000000000E+00 0. -1.
          1    1    1    2  502    0 -0.19429695014E+02 -0.86467745301E+01 -0.13319797690E+04  0.13321495354E+04  0.00000000000E+00 0. -1.
         22    1    1    2    0    0  0.31986585399E+02 -0.21338706804E+02  0.17545830626E+03  0.17962210133E+03  0.00000000000E+00 0. -1.
         22    1    1    2    0    0  0.30178701564E+02 -0.33779808329E+02 -0.99177176652E+01  0.46370147752E+02  0.00000000000E+00 0. -1.
</event>
<event>
 6    1  0.4069520E-005  0.8135762E+02  0.7818608E-02  0.1328448E+00
          2   -1    0    0  502    0  0.00000000000E+00  0.00000000000E+00  0.38473316510E+03  0.38473316510E+03  0.00000000000E+00 0.  1.
          1   -1    0    0  501    0 -0.00000000000E+00 -0.00000000000E+00 -0.57146298671E+02  0.57146298671E+02  0.00000000000E+00 0.  1.
          2    1    1    2  501    0 -0.18590192936E+02 -0.26947104847E+02  0.56323430046E+02  0.65146531029E+02  0.00000000000E+00 0.  1.
          1    1    1    2  502    0  0.42862352760E+02 -0.40882222679E+02 -0.94696984040E+01  0.59985103177E+02  0.00000000000E+00 0.  1.
         22    1    1    2    0    0  0.94696815689E+01  0.94057709698E+02  0.13450390794E+03  0.16440142601E+03  0.00000000000E+00 0.  1.
         22    1    1    2    0    0 -0.33741841394E+02 -0.26228382173E+02  0.14622922685E+03  0.15234640356E+03  0.00000000000E+00 0. -1.
</event>
<event>
 6    1  0.4069520E-005  0.4400025E+03  0.7818608E-02  0.1163853E+00
          2   -1    0    0  502    0  0.00000000000E+00  0.00000000000E+00  0.15404663986E+03  0.15404663986E+03  0.00000000000E+00 0.  1.
          1   -1    0    0  501    0 -0.00000000000E+00 -0.00000000000E+00 -0.14090325999E+04  0.14090325999E+04  0.00000000000E+00 0.  1.
          2    1    1    2  501    0 -0.19942942958E+02  0.77559194899E+01 -0.85264520631E+01  0.23034227700E+02  0.00000000000E+00 0.  1.
          1    1    1    2  502    0  0.30415656732E+03 -0.31369421208E+03 -0.82821009566E+03  0.93640121672E+03  0.00000000000E+00 0.  1.
         22    1    1    2    0    0 -0.12538884981E+02 -0.49953048357E+01  0.29510328455E+01  0.13816124704E+02  0.00000000000E+00 0. -1.
         22    1    1    2    0    0 -0.27167473938E+03  0.31093359742E+03 -0.42120044515E+03  0.58982767061E+03  0.00000000000E+00 0.  1.
</event>
<event>
 6    1  0.4069520E-005  0.1355471E+03  0.7818608E-02  0.1314639E+00
          2   -1    0    0  502    0  0.00000000000E+00  0.00000000000E+00  0.26455039580E+03  0.26455039580E+03  0.00000000000E+00 0.  1.
          1   -1    0    0  501    0 -0.00000000000E+00 -0.00000000000E+00 -0.11391234081E+03  0.11391234081E+03  0.00000000000E+00 0.  1.
          2    1    1    2  501    0 -0.12973897126E+02  0.32310701447E+02 -0.28176419515E+02  0.44790780874E+02  0.00000000000E+00 0.  1.
          1    1    1    2  502    0  0.32238038762E+02 -0.11982886476E+03  0.74523111865E+02  0.14474785723E+03  0.00000000000E+00 0.  1.
         22    1    1    2    0    0  0.15318863987E+01  0.91947362531E+02  0.10273823724E+02  0.92532240901E+02  0.00000000000E+00 0.  1.
         22    1    1    2    0    0 -0.20796028035E+02 -0.44291992218E+01  0.94017538914E+02  0.96391857598E+02  0.00000000000E+00 0. -1.
</event>
<event>
 6    1  0.4069520E-005  0.1527985E+03  0.7818608E-02  0.1201686E+00
          2   -1    0    0  502    0  0.00000000000E+00  0.00000000000E+00  0.86059580345E+03  0.86059580345E+03  0.00000000000E+00 0.  1.
          1   -1    0    0  501    0 -0.00000000000E+00 -0.00000000000E+00 -0.10943672570E+03  0.10943672570E+03  0.00000000000E+00 0.  1.
          2    1    1    2  501    0 -0.11926209434E+01  0.88048087778E+02 -0.49354314179E+02  0.10094422437E+03  0.00000000000E+00 0.  1.
          1    1    1    2  502    0 -0.14782922593E+02  0.35144222866E+02 -0.10456431793E+02  0.39534645149E+02  0.00000000000E+00 0.  1.
         22    1    1    2    0    0 -0.93110049991E+00  0.16715500983E+02  0.19792073114E+02  0.25922983613E+02  0.00000000000E+00 0.  1.
         22    1    1    2    0    0  0.16906644037E+02 -0.13990781163E+03  0.79117775061E+03  0.80363067601E+03  0.00000000000E+00 0.  1.
</event>
<event>
 6    1  0.4069520E-005  0.1456577E+03  0.7818608E-02  0.1261100E+00
          2   -1    0    0  502    0  0.00000000000E+00  0.00000000000E+00  0.11599926919E+03  0.11599926919E+03  0.00000000000E+00 0. -1.
          1   -1    0    0  501    0 -0.00000000000E+00 -0.00000000000E+00 -0.13913185464E+04  0.13913185464E+04  0.00000000000E+00 0. -1.
          2    1    1    2  501    0 -0.41278735320E+02  0.10336751812E+03 -0.74420474364E+03  0.75248221125E+03  0.00000000000E+00 0. -1.
          1    1    1    2  502    0  0.42966827393E+02 -0.15846822215E+03 -0.58579724123E+03  0.60837219982E+03  0.00000000000E+00 0. -1.
         22    1    1    2    0    0  0.10897834117E+02  0.45603188933E+02  0.93482638677E+02  0.10458210824E+03  0.00000000000E+00 0. -1.
         22    1    1    2    0    0 -0.12585926190E+02  0.94975151011E+01 -0.38799930970E+02  0.41881296236E+02  0.00000000000E+00 0.  1.
</event>
<event>
 6    1  0.4069520E-005  0.9792104E+02  0.7818608E-02  0.1365972E+00
          2   -1    0    0  502    0  0.00000000000E+00  0.00000000000E+00  0.13395782828E+03  0.13395782828E+03  0.00000000000E+00 0.  1.
          1   -1    0    0  501    0 -0.00000000000E+00 -0.00000000000E+00 -0.10304774006E+04  0.10304774006E+04  0.00000000000E+00 0. -1.
          2    1    1    2  501    0  0.38182617850E+02  0.81500105212E+01  0.19287029689E+02  0.43546808053E+02  0.00000000000E+00 0.  1.
          1    1    1    2  502    0 -0.83811867200E+02 -0.26873073972E+02 -0.97155122099E+03  0.97552978745E+03  0.00000000000E+00 0. -1.
         22    1    1    2    0    0 -0.15414123690E+02  0.17307642530E+02  0.77227219913E+02  0.80629977022E+02  0.00000000000E+00 0.  1.
         22    1    1    2    0    0  0.61043373040E+02  0.14154209208E+01 -0.21482600896E+02  0.64728656326E+02  0.00000000000E+00 0.  1.
</event>
<event>
 6    1  0.4069520E-005  0.1905270E+03  0.7818608E-02  0.1251334E+00
          2   -1    0    0  502    0  0.00000000000E+00  0.00000000000E+00  0.15103584683E+03  0.15103584683E+03  0.00000000000E+00 0.  1.
          1   -1    0    0  501    0 -0.00000000000E+00 -0.00000000000E+00 -0.73379938809E+03  0.73379938809E+03  0.00000000000E+00 0.  1.
          2    1    1    2  501    0  0.74043200876E+02  0.38322962738E+01  0.92814354329E+01  0.74720995272E+02  0.00000000000E+00 0.  1.
          1    1    1    2  502    0 -0.17898964038E+03 -0.38826742339E+02 -0.61179587855E+03  0.63862274020E+03  0.00000000000E+00 0.  1.
         22    1    1    2    0    0  0.11621061880E+03  0.57774812405E+02 -0.12557452283E+02  0.13038606704E+03  0.00000000000E+00 0.  1.
         22    1    1    2    0    0 -0.11264179302E+02 -0.22780366340E+02  0.32308354141E+02  0.41105432405E+02  0.00000000000E+00 0.  1.
</event>
<event>
 6    1  0.4069520E-005  0.1055857E+03  0.7818608E-02  0.1333201E+00
          2   -1    0    0  502    0  0.00000000000E+00  0.00000000000E+00  0.24294308272E+03  0.24294308272E+03  0.00000000000E+00 0. -1.
          1   -1    0    0  501    0 -0.00000000000E+00 -0.00000000000E+00 -0.80330672873E+02  0.80330672873E+02  0.00000000000E+00 0. -1.
          2    1    1    2  501    0  0.33379235901E+02 -0.26177204209E+02  0.47262386422E+01  0.42682042374E+02  0.00000000000E+00 0. -1.
          1    1    1    2  502    0  0.11956741361E+02  0.21380328756E+02 -0.38589908835E+02  0.45708458578E+02  0.00000000000E+00 0. -1.
         22    1    1    2    0    0 -0.65654940032E+02 -0.19032971673E+02  0.48967703404E+02  0.84087223393E+02  0.00000000000E+00 0. -1.
         22    1    1    2    0    0  0.20318962770E+02  0.23829847126E+02  0.14750837664E+03  0.15079603125E+03  0.00000000000E+00 0. -1.
</event>
<event>
 6    1  0.4069520E-005  0.4188763E+03  0.7818608E-02  0.1143564E+00
          2   -1    0    0  502    0  0.00000000000E+00  0.00000000000E+00  0.90520468586E+03  0.90520468586E+03  0.00000000000E+00 0. -1.
          1   -1    0    0  501    0 -0.00000000000E+00 -0.00000000000E+00 -0.79020885405E+03  0.79020885405E+03  0.00000000000E+00 0. -1.
          2    1    1    2  501    0 -0.22200907026E+03  0.10918674892E+03  0.37136898503E+03  0.44623390331E+03  0.00000000000E+00 0. -1.
          1    1    1    2  502    0  0.15627430580E+03  0.26406775844E+02 -0.72506260374E+03  0.74218242758E+03  0.00000000000E+00 0. -1.
         22    1    1    2    0    0  0.55493396616E+02 -0.15864336219E+03  0.41084603050E+03  0.44389378709E+03  0.00000000000E+00 0.  1.
         22    1    1    2    0    0  0.10241367842E+02  0.23049837420E+02  0.57843420026E+02  0.63103421941E+02  0.00000000000E+00 0. -1.
</event>
<event>
 6    1  0.4069520E-005  0.2349647E+03  0.7818608E-02  0.1160898E+00
          2   -1    0    0  502    0  0.00000000000E+00  0.00000000000E+00  0.61077774590E+03  0.61077774590E+03  0.00000000000E+00 0.  1.
          1   -1    0    0  501    0 -0.00000000000E+00 -0.00000000000E+00 -0.15686622421E+03  0.15686622421E+03  0.00000000000E+00 0. -1.
          2    1    1    2  501    0  0.19355715068E+03 -0.98909236243E+02  0.44991400688E+02  0.22197214629E+03  0.00000000000E+00 0.  1.
          1    1    1    2  502    0 -0.20593094205E+03  0.36223755191E+02  0.18350816934E+03  0.27819949955E+03  0.00000000000E+00 0. -1.
         22    1    1    2    0    0  0.18132982690E+01  0.94901968416E+02  0.20954311608E+03  0.23003910353E+03  0.00000000000E+00 0.  1.
         22    1    1    2    0    0  0.10560493100E+02 -0.32216487364E+02  0.15868835586E+02  0.37433220747E+02  0.00000000000E+00 0. -1.
</event>
<event>
 6    1  0.4069520E-005  0.1252425E+03  0.7818608E-02  0.1306446E+00
          2   -1    0    0  502    0  0.00000000000E+00  0.00000000000E+00  0.30985022252E+03  0.30985022252E+03  0.00000000000E+00 0.  1.
          1   -1    0    0  501    0 -0.00000000000E+00 -0.00000000000E+00 -0.25888267424E+03  0.25888267424E+03  0.00000000000E+00 0.  1.
          2    1    1    2  501    0 -0.56509383257E+01 -0.24881364806E+02  0.36647788604E+02  0.44655076174E+02  0.00000000000E+00 0.  1.
          1    1    1    2  502    0 -0.70230296092E+02  0.91940768042E+02 -0.21616525962E+03  0.24517915650E+03  0.00000000000E+00 0.  1.
         22    1    1    2    0    0  0.91020460205E+01  0.29917176525E+02  0.91754352179E+02  0.96936813630E+02  0.00000000000E+00 0. -1.
         22    1    1    2    0    0  0.66779188397E+02 -0.96976579762E+02  0.13873066711E+03  0.18196185046E+03  0.00000000000E+00 0.  1.
</event>
<event>
 6    1  0.4069520E-005  0.1019127E+03  0.7818608E-02  0.1322464E+00
          2   -1    0    0  502    0  0.00000000000E+00  0.00000000000E+00  0.39235490624E+02  0.39235490624E+02  0.00000000000E+00 0. -1.
          1   -1    0    0  501    0 -0.00000000000E+00 -0.00000000000E+00 -0.10785817511E+04  0.10785817511E+04  0.00000000000E+00 0. -1.
          2    1    1    2  501    0  0.65365405546E+02  0.49133568948E+02 -0.26208194837E+03  0.27454269523E+03  0.00000000000E+00 0. -1.
          1    1    1    2  502    0 -0.79003969012E+02 -0.35302307085E+02 -0.66758331032E+03  0.67316814856E+03  0.00000000000E+00 0. -1.
         22    1    1    2    0    0  0.50695120572E+02  0.89222552718E+01 -0.11529224325E+03  0.12626124996E+03  0.00000000000E+00 0. -1.
         22    1    1    2    0    0 -0.37056557107E+02 -0.22753517134E+02  0.56112415081E+01  0.43845147939E+02  0.00000000000E+00 0. -1.
</event>
<event>
 6    1  0.4069520E-005  0.6869214E+02  0.7818608E-02  0.1446503E+00
          2   -1    0    0  502    0  0.00000000000E+00  0.00000000000E+00  0.18702244395E+02  0.18702244395E+02  0.00000000000E+00 0. -1.
          1   -1    0    0  501    0 -0.00000000000E+00 -0.00000000000E+00 -0.14095405684E+04  0.14095405684E+04  0.00000000000E+00 0. -1.
          2    1    1    2  501    0 -0.31134876909E+02  0.35265891988E+01 -0.23478049589E+03  0.23686219336E+03  0.00000000000E+00 0. -1.
          1    1    1    2  502    0  0.51450899409E+02 -0.32153303868E+02 -0.91342750785E+03  0.91544024496E+03  0.00000000000E+00 0. -1.
         22    1    1    2    0    0  0.18941369776E+02  0.66907052288E+00  0.81062341378E+01  0.20613931606E+02  0.00000000000E+00 0. -1.
         22    1    1    2    0    0 -0.39257392276E+02  0.27957644146E+02 -0.25073655439E+03  0.25532644286E+03  0.00000000000E+00 0. -1.
</event>
<event>
 6    1  0.4069520E-005  0.1566614E+03  0.7818608E-02  0.1240793E+00
          2   -1    0    0  502    0  0.00000000000E+00  0.00000000000E+00  0.32544362871E+03  0.32544362871E+03  0.00000000000E+00 0.  1.
          1   -1    0    0  501    0 -0.00000000000E+00 -0.00000000000E+00 -0.35518370051E+03  0.35518370051E+03  0.00000000000E+00 0.  1.
          2    1    1    2  501    0  0.82002638826E+02  0.58042643381E+02  0.91439370785E+02  0.13584748711E+03  0.00000000000E+00 0.  1.
          1    1    1    2  502    0 -0.10842527346E+03 -0.10344291533E+03 -0.29023140770E+03  0.32663549512E+03  0.00000000000E+00 0.  1.
         22    1    1    2    0    0 -0.51397411608E+02  0.23480178717E+02  0.60380111375E+02  0.82696859446E+02  0.00000000000E+00 0.  1.
         22    1    1    2    0    0  0.77820046241E+02  0.21920093230E+02  0.10867185374E+03  0.13544748754E+03  0.00000000000E+00 0.  1.
</event>
<event>
 6    1  0.4069520E-005  0.1023343E+03  0.7818608E-02  0.1278027E+00
          2   -1    0    0  502    0  0.00000000000E+00  0.00000000000E+00  0.11652581935E+03  0.11652581935E+03  0.00000000000E+00 0. -1.
          1   -1    0    0  501    0 -0.00000000000E+00 -0.00000000000E+00 -0.22624687103E+03  0.22624687103E+03  0.00000000000E+00 0.  1.
          2    1    1    2  501    0  0.47909107920E+02  0.54079699622E+02 -0.49534057555E+02  0.87598626649E+02  0.00000000000E+00 0. -1.
          1    1    1    2  502    0 -0.83336775968E+02  0.21069763262E+02 -0.66549745477E+02  0.10870980533E+03  0.00000000000E+00 0.  1.
         22    1    1    2    0    0  0.50242211991E+02 -0.85618545380E+02  0.40967908825E+02  0.10739266610E+03  0.00000000000E+00 0. -1.
         22    1    1    2    0    0 -0.14814543943E+02  0.10469082496E+02 -0.34605157478E+02  0.39071592297E+02  0.00000000000E+00 0.  1.
</event>
<event>
 6    1  0.4069520E-005  0.9348813E+02  0.7818608E-02  0.1317329E+00
          2   -1    0    0  502    0  0.00000000000E+00  0.00000000000E+00  0.39708420468E+03  0.39708420468E+03  0.00000000000E+00 0.  1.
          1   -1    0    0  501    0 -0.00000000000E+00 -0.00000000000E+00 -0.21210321091E+04  0.21210321091E+04  0.00000000000E+00 0.  1.
          2    1    1    2  501    0 -0.22040858863E+02  0.14275751467E+00  0.20334674572E+02  0.29988645002E+02  0.00000000000E+00 0.  1.
          1    1    1    2  502    0 -0.37611020147E+02  0.25225166916E+02 -0.21021257944E+04  0.21026135530E+04  0.00000000000E+00 0.  1.
         22    1    1    2    0    0  0.38287283103E+02  0.48335438659E+02  0.21104799295E+03  0.21987152159E+03  0.00000000000E+00 0.  1.
         22    1    1    2    0    0  0.21364595907E+02 -0.73703363090E+02  0.14679522242E+03  0.16564259420E+03  0.00000000000E+00 0.  1.
</event>
<event>
 6    1  0.4069520E-005  0.8896498E+02  0.7818608E-02  0.1359336E+00
          2   -1    0    0  502    0  0.00000000000E+00  0.00000000000E+00  0.31842143178E+02  0.31842143178E+02  0.00000000000E+00 0.  1.
          1   -1    0    0  501    0 -0.00000000000E+00 -0.00000000000E+00 -0.23500908304E+04  0.23500908304E+04  0.00000000000E+00 0.  1.
          2    1    1    2  501    0  0.29897043979E+02  0.39274530683E+02 -0.10785995658E+04  0.10797283665E+04  0.00000000000E+00 0.  1.
          1    1    1    2  502    0 -0.20547907447E+02  0.12729000161E+02 -0.11261058652E+04  0.11263652443E+04  0.00000000000E+00 0.  1.
         22    1    1    2    0    0 -0.19319474639E+02 -0.28616140862E+02  0.19997365881E+02  0.39900128575E+02  0.00000000000E+00 0.  1.
         22    1    1    2    0    0  0.99703381064E+01 -0.23387389982E+02 -0.13354062207E+03  0.13593923420E+03  0.00000000000E+00 0.  1.
</event>
<event>
 6    1  0.4069520E-005  0.7500116E+02  0.7818608E-02  0.1365859E+00
          2   -1    0    0  502    0  0.00000000000E+00  0.00000000000E+00  0.15144523257E+03  0.15144523257E+03  0.00000000000E+00 0. -1.
          1   -1    0    0  501    0 -0.00000000000E+00 -0.00000000000E+00 -0.32264938029E+03  0.32264938029E+03  0.00000000000E+00 0. -1.
          2    1    1    2  501    0 -0.31544604559E+02 -0.95410917707E+00 -0.15308799852E+03  0.15630709419E+03  0.00000000000E+00 0. -1.
          1    1    1    2  502    0 -0.12721483851E+02  0.59696389256E+02  0.11101976859E+03  0.12669208365E+03  0.00000000000E+00 0. -1.
         22    1    1    2    0    0 -0.46533825992E+01 -0.42089960905E+02 -0.13270365463E+03  0.13929637013E+03  0.00000000000E+00 0. -1.
         22    1    1    2    0    0  0.48919471008E+02 -0.16652319174E+02  0.35677368388E+01  0.51799064893E+02  0.00000000000E+00 0. -1.
</event>
<event>
 6    1  0.4069520E-005  0.1045397E+03  0.7818608E-02  0.1298799E+00
          2   -1    0    0  502    0  0.00000000000E+00  0.00000000000E+00  0.31201941962E+03  0.31201941962E+03  0.00000000000E+00 0. -1.
          1   -1    0    0  501    0 -0.00000000000E+00 -0.00000000000E+00 -0.27628911199E+03  0.27628911199E+03  0.00000000000E+00 0. -1.
          2    1    1    2  501    0  0.22897435615E+02 -0.17174554920E+01  0.19633343495E+01  0.23045539544E+02  0.00000000000E+00 0. -1.
          1    1    1    2  502    0  0.47690428443E+02  0.29564322525E+02 -0.24384401083E+03  0.25021656170E+03  0.00000000000E+00 0. -1.
         22    1    1    2    0    0 -0.86816693376E+02  0.18733649395E+01  0.92538736403E+02  0.12690179463E+03  0.00000000000E+00 0. -1.
         22    1    1    2    0    0  0.16228829318E+02 -0.29720231972E+02  0.18507224770E+03  0.18814463574E+03  0.00000000000E+00 0.  1.
</event>
<event>
 6    1  0.4069520E-005  0.1348549E+03  0.7818608E-02  0.1221161E+00
          2   -1    0    0  502    0  0.00000000000E+00  0.00000000000E+00  0.95896569276E+03  0.95896569276E+03  0.00000000000E+00 0. -1.
          1   -1    0    0  501    0 -0.00000000000E+00 -0.00000000000E+00 -0.33981438233E+02  0.33981438233E+02  0.00000000000E+00 0. -1.
          2    1    1    2  501    0 -0.69588698442E+01 -0.78062921611E+02  0.26286972204E+03  0.27430409469E+03  0.00000000000E+00 0. -1.
          1    1    1    2  502    0  0.78273754555E+02 -0.42680663807E+02  0.26748161531E+03  0.28194828292E+03  0.00000000000E+00 0. -1.
         22    1    1    2    0    0 -0.84470380141E+02  0.13600853818E+03  0.30114819686E+03  0.34106275676E+03  0.00000000000E+00 0. -1.
         22    1    1    2    0    0  0.13155495431E+02 -0.15264952764E+02  0.93484720320E+02  0.95631996613E+02  0.00000000000E+00 0.  1.
</event>
<event>
 6    1  0.4069520E-005  0.2332559E+03  0.7818608E-02  0.1180567E+00
          2   -1    0    0  502    0  0.00000000000E+00  0.00000000000E+00  0.41948210786E+02  0.41948210786E+02  0.00000000000E+00 0. -1.
          1   -1    0    0  501    0 -0.00000000000E+00 -0.00000000000E+00 -0.14779632468E+04  0.14779632468E+04  0.00000000000E+00 0. -1.
          2    1    1    2  501    0 -0.31060435076E+02  0.21184241505E+02 -0.58569835781E+03  0.58690381585E+03  0.00000000000E+00 0. -1.
          1    1    1    2  502    0  0.16636023155E+03  0.39635613075E+02 -0.53986552030E+03  0.56630511959E+03  0.00000000000E+00 0. -1.
         22    1    1    2    0    0 -0.90579875953E+01 -0.61236915752E+02 -0.59877045426E+02  0.86123559837E+02  0.00000000000E+00 0. -1.
         22    1    1    2    0    0 -0.12624180888E+03  0.41706117313E+00 -0.25057411251E+03  0.28057896235E+03  0.00000000000E+00 0. -1.
</event>
<event>
 6    1  0.4069520E-005  0.8489174E+02  0.7818608E-02  0.1318790E+00
          2   -1    0    0  502    0  0.00000000000E+00  0.00000000000E+00  0.77119991479E+02  0.77119991479E+02  0.00000000000E+00 0.  1.
          1   -1    0    0  501    0 -0.00000000000E+00 -0.00000000000E+00 -0.91051657164E+03  0.91051657164E+03  0.00000000000E+00 0.  1.
          2    1    1    2  501    0  0.32660438396E+02  0.36153496969E+02 -0.39030834331E+02  0.62427442747E+02  0.00000000000E+00 0.  1.
          1    1    1    2  502    0 -0.46161762416E+02  0.27373176242E+02 -0.78437405656E+03  0.78620789851E+03  0.00000000000E+00 0.  1.
         22    1    1    2    0    0  0.44278665001E+02  0.11601928029E+02 -0.30821886699E+02  0.55183272900E+02  0.00000000000E+00 0.  1.
         22    1    1    2    0    0 -0.30777340981E+02 -0.75128601241E+02  0.20830197427E+02  0.83817948956E+02  0.00000000000E+00 0.  1.
</event>
<event>
 6    1  0.4069520E-005  0.3962251E+03  0.7818608E-02  0.1142798E+00
          2   -1    0    0  502    0  0.00000000000E+00  0.00000000000E+00  0.63781595683E+03  0.63781595683E+03  0.00000000000E+00 0. -1.
          1   -1    0    0  501    0 -0.00000000000E+00 -0.00000000000E+00 -0.83128994075E+02  0.83128994075E+02  0.00000000000E+00 0. -1.
          2    1    1    2  501    0  0.18049135442E+03  0.57807309925E+02  0.29143443622E+03  0.34763895743E+03  0.00000000000E+00 0. -1.
          1    1    1    2  502    0  0.11476536603E+02  0.21179403522E+02  0.18050819033E+02  0.30101662640E+02  0.00000000000E+00 0. -1.
         22    1    1    2    0    0 -0.17059972799E+03 -0.10018747006E+03  0.16526274897E+03  0.25778590448E+03  0.00000000000E+00 0. -1.
         22    1    1    2    0    0 -0.21368163035E+02  0.21200756615E+02  0.79938958525E+02  0.85418426364E+02  0.00000000000E+00 0. -1.
</event>
<event>
 6    1  0.4069520E-005  0.2067507E+03  0.7818608E-02  0.1226086E+00
          2   -1    0    0  502    0  0.00000000000E+00  0.00000000000E+00  0.12590345355E+03  0.12590345355E+03  0.00000000000E+00 0. -1.
          1   -1    0    0  501    0 -0.00000000000E+00 -0.00000000000E+00 -0.66021765025E+03  0.66021765025E+03  0.00000000000E+00 0. -1.
          2    1    1    2  501    0 -0.39539392668E+02 -0.79202208678E+02 -0.13924497867E+03  0.16500156823E+03  0.00000000000E+00 0. -1.
          1    1    1    2  502    0  0.81077180203E+02  0.13056434810E+03 -0.44773319875E+03  0.47337677954E+03  0.00000000000E+00 0. -1.
         22    1    1    2    0    0  0.33228488578E+02  0.11797650712E+01  0.45123271688E+02  0.56050280522E+02  0.00000000000E+00 0. -1.
         22    1    1    2    0    0 -0.74766276113E+02 -0.52541904497E+02  0.75407090341E+01  0.91692475507E+02  0.00000000000E+00 0. -1.
</event>
<event>
 6    1  0.4069520E-005  0.2654454E+03  0.7818608E-02  0.1163542E+00
          2   -1    0    0  502    0  0.00000000000E+00  0.00000000000E+00  0.67517542947E+03  0.67517542947E+03  0.00000000000E+00 0. -1.
          1   -1    0    0  501    0 -0.00000000000E+00 -0.00000000000E+00 -0.22531948068E+03  0.22531948068E+03  0.00000000000E+00 0. -1.
          2    1    1    2  501    0  0.12647060312E+03 -0.21639402118E+03 -0.11455818777E+02  0.25090321169E+03  0.00000000000E+00 0. -1.
          1    1    1    2  502    0 -0.16280201314E+03  0.18072133483E+03  0.98861769725E+02  0.26256112785E+03  0.00000000000E+00 0. -1.
         22    1    1    2    0    0  0.19084797659E+02  0.58902881060E+02  0.35016643446E+03  0.35559852463E+03  0.00000000000E+00 0. -1.
         22    1    1    2    0    0  0.17246612361E+02 -0.23230194717E+02  0.12283563390E+02  0.31432045974E+02  0.00000000000E+00 0. -1.
</event>
<event>
 6    1  0.4069520E-005  0.6773087E+02  0.7818608E-02  0.1376205E+00
          2   -1    0    0  502    0  0.00000000000E+00  0.00000000000E+00  0.10853954769E+03  0.10853954769E+03  0.00000000000E+00 0.  1.
          1   -1    0    0  501    0 -0.00000000000E+00 -0.00000000000E+00 -0.19611972400E+03  0.19611972400E+03  0.00000000000E+00 0.  1.
          2    1    1    2  501    0 -0.23078526711E+02  0.85719973530E+01 -0.23412156915E+02  0.33973910949E+02  0.00000000000E+00 0.  1.
          1    1    1    2  502    0 -0.23884754909E+02 -0.29831344389E+01 -0.12389179752E+03  0.12620839156E+03  0.00000000000E+00 0.  1.
         22    1    1    2    0    0  0.60062094497E+02  0.17340817199E+02  0.86594355693E+02  0.10680234817E+03  0.00000000000E+00 0.  1.
         22    1    1    2    0    0 -0.13098812877E+02 -0.22929680113E+02 -0.26870577567E+02  0.37674621002E+02  0.00000000000E+00 0.  1.
</event>
<event>
 6    1  0.4069520E-005  0.1040083E+03  0.7818608E-02  0.1336703E+00
          2   -1    0    0  502    0  0.00000000000E+00  0.00000000000E+00  0.31586256772E+02  0.31586256772E+02  0.00000000000E+00 0.  1.
          1   -1    0    0  501    0 -0.00000000000E+00 -0.00000000000E+00 -0.34978231924E+03  0.34978231924E+03  0.00000000000E+00 0. -1.
          2    1    1    2  501    0  0.23551066879E+02 -0.26921720540E+02 -0.38342878157E+02  0.52436705592E+02  0.00000000000E+00 0.  1.
          1    1    1    2  502    0 -0.20948002263E+02 -0.16620113838E+02 -0.11620777725E+03  0.11924468322E+03  0.00000000000E+00 0. -1.
         22    1    1    2    0    0  0.69628237123E+01  0.72369196529E+02 -0.16391263410E+03  0.17931294749E+03  0.00000000000E+00 0. -1.
         22    1    1    2    0    0 -0.95658883277E+01 -0.28827362151E+02  0.26722703122E+00  0.30374239717E+02  0.00000000000E+00 0. -1.
</event>
<event>
 6    1  0.4069520E-005  0.4464077E+03  0.7818608E-02  0.1142952E+00
          2   -1    0    0  502    0  0.00000000000E+00  0.00000000000E+00  0.60248532148E+03  0.60248532148E+03  0.00000000000E+00 0. -1.
          1   -1    0    0  501    0 -0.00000000000E+00 -0.00000000000E+00 -0.26511571653E+04  0.26511571653E+04  0.00000000000E+00 0. -1.
          2    1    1    2  501    0  0.20747743985E+03  0.50097430671E+02  0.91525221860E+02  0.23223588621E+03  0.00000000000E+00 0. -1.
          1    1    1    2  502    0 -0.40156620275E+02 -0.10838462682E+02 -0.25544613071E+04  0.25547999130E+04  0.00000000000E+00 0. -1.
         22    1    1    2    0    0  0.12932691568E+02  0.16729866819E+02  0.79853918680E+02  0.82606242401E+02  0.00000000000E+00 0. -1.
         22    1    1    2    0    0 -0.18025351115E+03 -0.55988834808E+02  0.33441032271E+03  0.38400044511E+03  0.00000000000E+00 0.  1.
</event>
<event>
 6    1  0.4069520E-005  0.1810648E+03  0.7818608E-02  0.1231664E+00
          2   -1    0    0  502    0  0.00000000000E+00  0.00000000000E+00  0.47465717765E+02  0.47465717765E+02  0.00000000000E+00 0.  1.
          1   -1    0    0  501    0 -0.00000000000E+00 -0.00000000000E+00 -0.14525368229E+04  0.14525368229E+04  0.00000000000E+00 0.  1.
          2    1    1    2  501    0 -0.23310998775E+02  0.30249086036E+02 -0.68794824502E+02  0.78683783261E+02  0.00000000000E+00 0.  1.
          1    1    1    2  502    0  0.14134711010E+03 -0.12465575603E+03 -0.10982225373E+04  0.11142759104E+04  0.00000000000E+00 0.  1.
         22    1    1    2    0    0 -0.95495851016E+01  0.43060249067E+02 -0.43503898338E+01  0.44320486426E+02  0.00000000000E+00 0.  1.
         22    1    1    2    0    0 -0.10848652622E+03  0.51346420931E+02 -0.23370335348E+03  0.26272236056E+03  0.00000000000E+00 0.  1.
</event>
<event>
 6    1  0.4069520E-005  0.2145321E+03  0.7818608E-02  0.1189356E+00
          2   -1    0    0  502    0  0.00000000000E+00  0.00000000000E+00  0.24788531976E+03  0.24788531976E+03  0.00000000000E+00 0. -1.
          1   -1    0    0  501    0 -0.00000000000E+00 -0.00000000000E+00 -0.36004683676E+03  0.36004683676E+03  0.00000000000E+00 0. -1.
          2    1    1    2  501    0 -0.95548241934E+02 -0.10094431642E+03 -0.16421211651E+03  0.21513911956E+03  0.00000000000E+00 0. -1.
          1    1    1    2  502    0  0.16887935754E+03  0.11488817639E+03 -0.58676354359E+02  0.21251457606E+03  0.00000000000E+00 0. -1.
         22    1    1    2    0    0 -0.43823962111E+02 -0.48562099665E+02  0.11731247371E+03  0.13431691504E+03  0.00000000000E+00 0. -1.
         22    1    1    2    0    0 -0.29507153490E+02  0.34618239694E+02 -0.65855198436E+01  0.45961545864E+02  0.00000000000E+00 0.  1.
</event>
<event>
 6    1  0.4069520E-005  0.1416555E+03  0.7818608E-02  0.1211693E+00
          2   -1    0    0  502    0  0.00000000000E+00  0.00000000000E+00  0.53525475786E+03  0.53525475786E+03  0.00000000000E+00 0. -1.
          1   -1    0    0  501    0 -0.00000000000E+00 -0.00000000000E+00 -0.95740472008E+02  0.95740472008E+02  0.00000000000E+00 0. -1.
          2    1    1    2  501    0 -0.96148192191E+02 -0.46758775729E+02  0.16875843414E+03  0.19977554170E+03  0.00000000000E+00 0. -1.
          1    1    1    2  502    0 -0.96784605492E+01 -0.20630047503E+02 -0.56079766960E+02  0.60532732640E+02  0.00000000000E+00 0. -1.
         22    1    1    2    0    0  0.13182328135E+03  0.69098767720E+02  0.27726055728E+03  0.31468306887E+03  0.00000000000E+00 0. -1.
         22    1    1    2    0    0 -0.25996628607E+02 -0.17099444873E+01  0.49575061388E+02  0.56003886658E+02  0.00000000000E+00 0. -1.
</event>
<event>
 6    1  0.4069520E-005  0.1145534E+03  0.7818608E-02  0.1264100E+00
          2   -1    0    0  502    0  0.00000000000E+00  0.00000000000E+00  0.11645148908E+03  0.11645148908E+03  0.00000000000E+00 0. -1.
          1   -1    0    0  501    0 -0.00000000000E+00 -0.00000000000E+00 -0.25234872613E+03  0.25234872613E+03  0.00000000000E+00 0. -1.
          2    1    1    2  501    0  0.11496914521E+02  0.65201702252E+02 -0.19897787658E+02  0.69132936968E+02  0.00000000000E+00 0. -1.
          1    1    1    2  502    0  0.54469972998E+02 -0.11475562291E+03 -0.71664453402E+02  0.14584795106E+03  0.00000000000E+00 0. -1.
         22    1    1    2    0    0  0.22887459719E+02  0.30411551054E+02 -0.49896569773E+02  0.62756401466E+02  0.00000000000E+00 0. -1.
         22    1    1    2    0    0 -0.88854347238E+02  0.19142369605E+02  0.55615737784E+01  0.91062925716E+02  0.00000000000E+00 0. -1.
</event>
<event>
 6    1  0.4069520E-005  0.1259023E+03  0.7818608E-02  0.1308549E+00
          2   -1    0    0  502    0  0.00000000000E+00  0.00000000000E+00  0.14836589915E+03  0.14836589915E+03  0.00000000000E+00 0.  1.
          1   -1    0    0  501    0 -0.00000000000E+00 -0.00000000000E+00 -0.14345231261E+04  0.14345231261E+04  0.00000000000E+00 0. -1.
          2    1    1    2  501    0  0.44202652947E+02  0.30513183230E+02  0.12462806049E+02  0.55138465820E+02  0.00000000000E+00 0.  1.
          1    1    1    2  502    0 -0.11918777692E+03 -0.18877722093E+02 -0.13616454847E+04  0.13669822678E+04  0.00000000000E+00 0. -1.
         22    1    1    2    0    0  0.84561659319E+02  0.16399404468E+02 -0.52964518592E+01  0.86299867300E+02  0.00000000000E+00 0.  1.
         22    1    1    2    0    0 -0.95765353448E+01 -0.28034865605E+02  0.68321903535E+02  0.74468424324E+02  0.00000000000E+00 0.  1.
</event>
<event>
 6    1  0.4069520E-005  0.2174962E+03  0.7818608E-02  0.1219728E+00
          2   -1    0    0  502    0  0.00000000000E+00  0.00000000000E+00  0.33021079417E+03  0.33021079417E+03  0.00000000000E+00 0.  1.
          1   -1    0    0  501    0 -0.00000000000E+00 -0.00000000000E+00 -0.36663725414E+03  0.36663725414E+03  0.00000000000E+00 0.  1.
          2    1    1    2  501    0  0.85972825840E+02 -0.82075578992E+02  0.66422299750E+02  0.13616038100E+03  0.00000000000E+00 0.  1.
          1    1    1    2  502    0 -0.13397407741E+03  0.90630983990E+02 -0.29026621511E+03  0.33229129436E+03  0.00000000000E+00 0.  1.
         22    1    1    2    0    0 -0.15570162173E+02 -0.28662578654E+02  0.35478810258E+01  0.32810986345E+02  0.00000000000E+00 0. -1.
         22    1    1    2    0    0  0.63571413743E+02  0.20107173656E+02  0.18386957436E+03  0.19558538661E+03  0.00000000000E+00 0.  1.
</event>
<event>
 6    1  0.4069520E-005  0.1272651E+03  0.7818608E-02  0.1232058E+00
          2   -1    0    0  502    0  0.00000000000E+00  0.00000000000E+00  0.12871843231E+04  0.12871843231E+04  0.00000000000E+00 0. -1.
          1   -1    0    0  501    0 -0.00000000000E+00 -0.00000000000E+00 -0.38279837877E+03  0.38279837877E+03  0.00000000000E+00 0. -1.
          2    1    1    2  501    0 -0.65170407079E+02 -0.77305390901E+02  0.81090606652E+03  0.81718538542E+03  0.00000000000E+00 0. -1.
          1    1    1    2  502    0  0.12504906838E+02 -0.56052044686E+02 -0.35809395255E+03  0.36266993708E+03  0.00000000000E+00 0. -1.
         22    1    1    2    0    0  0.60066046272E+02  0.15076027617E+03  0.33742334419E+03  0.37442102504E+03  0.00000000000E+00 0.  1.
         22    1    1    2    0    0 -0.74005460303E+01 -0.17402840586E+02  0.11415048612E+03  0.11570635429E+03  0.00000000000E+00 0.  1.
</event>
<event>
 6    1  0.4069520E-005  0.6520263E+02  0.7818608E-02  0.1400426E+00
          2   -1    0    0  502    0  0.00000000000E+00  0.00000000000E+00  0.30291587123E+03  0.30291587123E+03  0.00000000000E+00 0. -1.
          1   -1    0    0  501    0 -0.00000000000E+00 -0.00000000000E+00 -0.82897419329E+02  0.82897419329E+02  0.00000000000E+00 0. -1.
          2    1    1    2  501    0 -0.14924666134E+02  0.18810518992E+02 -0.28821715054E+02  0.37513631423E+02  0.00000000000E+00 0. -1.
          1    1    1    2  502    0 -0.35646880851E+02 -0.20114564505E+02 -0.22861618101E+02  0.46882293052E+02  0.00000000000E+00 0. -1.
         22    1    1    2    0    0  0.36198028889E+02 -0.27563341614E+02  0.26448767195E+03  0.26837243471E+03  0.00000000000E+00 0. -1.
         22    1    1    2    0    0  0.14373518095E+02  0.28867387128E+02  0.72141131068E+01  0.33044931380E+02  0.00000000000E+00 0.  1.
</event>
<event>
 6    1  0.4069520E-005  0.1193225E+03  0.7818608E-02  0.1287932E+00
          2   -1    0    0  502    0  0.00000000000E+00  0.00000000000E+00  0.28877781381E+03  0.28877781381E+03  0.00000000000E+00 0. -1.
          1   -1    0    0  501    0 -0.00000000000E+00 -0.00000000000E+00 -0.81356227706E+02  0.81356227706E+02  0.00000000000E+00 0. -1.
          2    1    1    2  501    0 -0.26381266116E+02 -0.24755542151E+02  0.57991304371E+01  0.36639295611E+02  0.00000000000E+00 0. -1.
          1    1    1    2  502    0 -0.11629043605E+01  0.96513747727E+02  0.17004526564E+02  0.98007192443E+02  0.00000000000E+00 0. -1.
         22    1    1    2    0    0  0.46603460546E+02  0.20588136740E+02  0.77886627589E+02  0.93070299593E+02  0.00000000000E+00 0. -1.
         22    1    1    2    0    0 -0.19059290069E+02 -0.92346342315E+02  0.10673130152E+03  0.14241725387E+03  0.00000000000E+00 0. -1.
</event>
<event>
 6    1  0.4069520E-005  0.1283574E+03  0.7818608E-02  0.1248009E+00
          2   -1    0    0  502    0  0.00000000000E+00  0.00000000000E+00  0.24593479420E+03  0.24593479420E+03  0.00000000000E+00 0. -1.
          1   -1    0    0  501    0 -0.00000000000E+00 -0.00000000000E+00 -0.23322417968E+03  0.23322417968E+03  0.00000000000E+00 0. -1.
          2    1    1    2  501    0 -0.36784017876E+01 -0.77756416936E+02 -0.57746758719E+02  0.96924089663E+02  0.00000000000E+00 0. -1.
          1    1    1    2  502    0 -0.85313586974E+02  0.15771011807E+03 -0.34605433625E+02  0.18261551276E+03  0.00000000000E+00 0. -1.
         22    1    1    2    0    0  0.15704613092E+02 -0.29766309376E+02 -0.25137107873E+02  0.42006454723E+02  0.00000000000E+00 0. -1.
         22    1    1    2    0    0  0.73287375670E+02 -0.50187391760E+02  0.13019991474E+03  0.15761291674E+03  0.00000000000E+00 0. -1.
</event>
<event>
 6    1  0.4069520E-005  0.1368284E+03  0.7818608E-02  0.1234411E+00
          2   -1    0    0  502    0  0.00000000000E+00  0.00000000000E+00  0.11047266515E+03  0.11047266515E+03  0.00000000000E+00 0. -1.
          1   -1    0    0  501    0 -0.00000000000E+00 -0.00000000000E+00 -0.50443802968E+03  0.50443802968E+03  0.00000000000E+00 0. -1.
          2    1    1    2  501    0 -0.55843147277E+02 -0.69410659960E+02 -0.28782740561E+03  0.30129870931E+03  0.00000000000E+00 0. -1.
          1    1    1    2  502    0  0.19765862552E+02  0.11151589038E+03  0.31054291875E+02  0.11743445905E+03  0.00000000000E+00 0. -1.
         22    1    1    2    0    0 -0.33980272238E+02  0.24402254935E+02 -0.56550938703E+02  0.70342999762E+02  0.00000000000E+00 0. -1.
         22    1    1    2    0    0  0.70057556964E+02 -0.66507485352E+02 -0.80641312090E+02  0.12583452671E+03  0.00000000000E+00 0. -1.
</event>
<event>
 6    1  0.4069520E-005  0.7084026E+02  0.7818608E-02  0.1358540E+00
          2   -1    0    0  502    0  0.00000000000E+00  0.00000000000E+00  0.28859077560E+03  0.28859077560E+03  0.00000000000E+00 0. -1.
          1   -1    0    0  501    0 -0.00000000000E+00 -0.00000000000E+00 -0.77537075917E+02  0.77537075917E+02  0.00000000000E+00 0. -1.
          2    1    1    2  501    0 -0.11275765763E+02  0.17528611925E+02  0.34944831215E+02  0.40688282812E+02  0.00000000000E+00 0. -1.
          1    1    1    2  502    0 -0.12043355537E+02 -0.29855334337E+02 -0.54603559375E+02  0.63387160352E+02  0.00000000000E+00 0. -1.
         22    1    1    2    0    0 -0.39419211923E+02  0.36418892131E+02  0.13338339670E+03  0.14377531252E+03  0.00000000000E+00 0. -1.
         22    1    1    2    0    0  0.62738333223E+02 -0.24092169718E+02  0.97329031139E+02  0.11827709584E+03  0.00000000000E+00 0. -1.
</event>
<event>
 6    1  0.4069520E-005  0.2034819E+03  0.7818608E-02  0.1153534E+00
          2   -1    0    0  502    0  0.00000000000E+00  0.00000000000E+00  0.18736894915E+04  0.18736894915E+04  0.00000000000E+00 0. -1.
          1   -1    0    0  501    0 -0.00000000000E+00 -0.00000000000E+00 -0.18694732060E+04  0.18694732060E+04  0.00000000000E+00 0. -1.
          2    1    1    2  501    0  0.10710476952E+03 -0.43489089799E+02  0.43468119473E+03  0.44978936586E+03  0.00000000000E+00 0. -1.
          1    1    1    2  502    0 -0.17280940176E+02 -0.20274681473E+03 -0.18415118485E+04  0.18527198358E+04  0.00000000000E+00 0. -1.
         22    1    1    2    0    0  0.15896102684E+02 -0.22743540808E+01  0.37255144862E+02  0.40568517174E+02  0.00000000000E+00 0.  1.
         22    1    1    2    0    0 -0.10571993202E+03  0.24851025861E+03  0.13737917945E+04  0.14000849786E+04  0.00000000000E+00 0. -1.
</event>
<event>
 6    1  0.4069520E-005  0.1394469E+03  0.7818608E-02  0.1281115E+00
          2   -1    0    0  502    0  0.00000000000E+00  0.00000000000E+00  0.48217899128E+02  0.48217899128E+02  0.00000000000E+00 0.  1.
          1   -1    0    0  501    0 -0.00000000000E+00 -0.00000000000E+00 -0.38232924290E+04  0.38232924290E+04  0.00000000000E+00 0.  1.
          2    1    1    2  501    0  0.72306386316E+02  0.10606570572E+02 -0.52245782396E+02  0.89835041156E+02  0.00000000000E+00 0.  1.
          1    1    1    2  502    0 -0.85230566627E+02 -0.36389167311E+02 -0.36066862551E+04  0.36078766835E+04  0.00000000000E+00 0.  1.
         22    1    1    2    0    0  0.16056892136E+02 -0.32565053348E+02  0.74722705464E+01  0.37069412077E+02  0.00000000000E+00 0.  1.
         22    1    1    2    0    0 -0.31327118246E+01  0.58347650086E+02 -0.12361476296E+03  0.13672919138E+03  0.00000000000E+00 0.  1.
</event>
<event>
 6    1  0.4069520E-005  0.1942955E+03  0.7818608E-02  0.1249420E+00
          2   -1    0    0  502    0  0.00000000000E+00  0.00000000000E+00  0.99969421588E+02  0.99969421588E+02  0.00000000000E+00 0. -1.
          1   -1    0    0  501    0 -0.00000000000E+00 -0.00000000000E+00 -0.23104127615E+03  0.23104127615E+03  0.00000000000E+00 0. -1.
          2    1    1    2  501    0  0.30911244182E+02  0.32772423978E+02 -0.78039970714E+02  0.90109787589E+02  0.00000000000E+00 0. -1.
          1    1    1    2  502    0  0.45276081817E+02  0.46440913663E+02 -0.40259334945E+02  0.76338038335E+02  0.00000000000E+00 0. -1.
         22    1    1    2    0    0 -0.96734569449E+02 -0.93271916152E+02 -0.25227586268E+02  0.13672475408E+03  0.00000000000E+00 0. -1.
         22    1    1    2    0    0  0.20547243450E+02  0.14058578511E+02  0.12455037365E+02  0.27838117733E+02  0.00000000000E+00 0.  1.
</event>
<event>
 6    1  0.4069520E-005  0.1687141E+03  0.7818608E-02  0.1221762E+00
          2   -1    0    0  502    0  0.00000000000E+00  0.00000000000E+00  0.86564284238E+03  0.86564284238E+03  0.00000000000E+00 0.  1.
          1   -1    0    0  501    0 -0.00000000000E+00 -0.00000000000E+00 -0.14337659206E+03  0.14337659206E+03  0.00000000000E+00 0.  1.
          2    1    1    2  501    0  0.14570794440E+03  0.74387731663E+02  0.34801356861E+03  0.38454880525E+03  0.00000000000E+00 0.  1.
          1    1    1    2  502    0 -0.11295493705E+03 -0.11105076489E+03 -0.61345464548E+02  0.16986570050E+03  0.00000000000E+00 0.  1.
         22    1    1    2    0    0 -0.66626709949E+02 -0.67080435921E+01  0.31507357581E+03  0.32211096613E+03  0.00000000000E+00 0.  1.
         22    1    1    2    0    0  0.33873702598E+02  0.43371076822E+02  0.12052457045E+03  0.13249396256E+03  0.00000000000E+00 0.  1.
</event>
<event>
 6    1  0.4069520E-005  0.2293471E+03  0.7818608E-02  0.1209665E+00
          2   -1    0    0  502    0  0.00000000000E+00  0.00000000000E+00  0.31965855167E+03  0.31965855167E+03  0.00000000000E+00 0. -1.
          1   -1    0    0  501    0 -0.00000000000E+00 -0.00000000000E+00 -0.54002841818E+03  0.54002841818E+03  0.00000000000E+00 0. -1.
          2    1    1    2  501    0 -0.48796332551E+02 -0.67057110317E+02 -0.60928356660E+01  0.83155641787E+02  0.00000000000E+00 0. -1.
          1    1    1    2  502    0 -0.17339300939E+02  0.99929932048E+02 -0.47171476181E+03  0.48249503540E+03  0.00000000000E+00 0. -1.
         22    1    1    2    0    0  0.90662277574E+02 -0.57035237075E+02  0.20520279970E+03  0.23147538929E+03  0.00000000000E+00 0. -1.
         22    1    1    2    0    0 -0.24526644084E+02  0.24162415344E+02  0.52234931273E+02  0.62560903369E+02  0.00000000000E+00 0. -1.
</event>
<event>
 6    1  0.4069520E-005  0.2848382E+03  0.7818608E-02  0.1190234E+00
          2   -1    0    0  502    0  0.00000000000E+00  0.00000000000E+00  0.38174583167E+03  0.38174583167E+03  0.00000000000E+00 0. -1.
          1   -1    0    0  501    0 -0.00000000000E+00 -0.00000000000E+00 -0.41933692818E+03  0.41933692818E+03  0.00000000000E+00 0. -1.
          2    1    1    2  501    0  0.56583118990E+02  0.26499178448E+02  0.94850830080E+02  0.11358052553E+03  0.00000000000E+00 0. -1.
          1    1    1    2  502    0 -0.22957829842E+03 -0.14550913815E+03 -0.28910870495E+03  0.39681601237E+03  0.00000000000E+00 0. -1.
         22    1    1    2    0    0  0.26946612662E+02 -0.50229751795E+01  0.79549827819E+02  0.84139915139E+02  0.00000000000E+00 0. -1.
         22    1    1    2    0    0  0.14604856677E+03  0.12403293488E+03  0.77116950548E+02  0.20654630680E+03  0.00000000000E+00 0. -1.
</event>
<event>
 6    1  0.4069520E-005  0.1380536E+03  0.7818608E-02  0.1240723E+00
          2   -1    0    0  502    0  0.00000000000E+00  0.00000000000E+00  0.80954173985E+02  0.80954173985E+02  0.00000000000E+00 0. -1.
          1   -1    0    0  501    0 -0.00000000000E+00 -0.00000000000E+00 -0.32595240932E+03  0.32595240932E+03  0.00000000000E+00 0. -1.
          2    1    1    2  501    0  0.33267102873E+00  0.32436733213E+02 -0.20517898662E+03  0.20772739078E+03  0.00000000000E+00 0. -1.
          1    1    1    2  502    0 -0.23462729750E+02  0.26461400486E+02  0.30124748448E+02  0.46456494401E+02  0.00000000000E+00 0. -1.
         22    1    1    2    0    0  0.67088414672E+02 -0.62049598736E+02 -0.51963268895E+02  0.10512463746E+03  0.00000000000E+00 0. -1.
         22    1    1    2    0    0 -0.43958355950E+02  0.31514650367E+01 -0.17980728270E+02  0.47598060663E+02  0.00000000000E+00 0. -1.
</event>
<event>
 6    1  0.4069520E-005  0.2810973E+03  0.7818608E-02  0.1145426E+00
          2   -1    0    0  502    0  0.00000000000E+00  0.00000000000E+00  0.13773958600E+04  0.13773958600E+04  0.00000000000E+00 0.  1.
          1   -1    0    0  501    0 -0.00000000000E+00 -0.00000000000E+00 -0.43332330180E+03  0.43332330180E+03  0.00000000000E+00 0.  1.
          2    1    1    2  501    0 -0.23092407346E+03  0.71936835499E+02  0.11618591779E+04  0.11867677049E+04  0.00000000000E+00 0.  1.
          1    1    1    2  502    0  0.26536444277E+03 -0.25693115609E+02 -0.34657324916E+03  0.43725443475E+03  0.00000000000E+00 0.  1.
         22    1    1    2    0    0 -0.30679520434E+02 -0.73690997962E+02  0.31956075601E+02  0.85981317288E+02  0.00000000000E+00 0. -1.
         22    1    1    2    0    0 -0.37608488825E+01  0.27447278072E+02  0.96830553879E+02  0.10071570494E+03  0.00000000000E+00 0.  1.
</event>
<event>
 6    1  0.4069520E-005  0.9277817E+02  0.7818608E-02  0.1325826E+00
          2   -1    0    0  502    0  0.00000000000E+00  0.00000000000E+00  0.70033808519E+02  0.70033808519E+02  0.00000000000E+00 0. -1.
          1   -1    0    0  501    0 -0.00000000000E+00 -0.00000000000E+00 -0.75955097386E+03  0.75955097386E+03  0.00000000000E+00 0.  1.
          2    1    1    2  501    0 -0.74992223164E+01  0.26679682979E+02 -0.12682279307E+02  0.30477598784E+02  0.00000000000E+00 0. -1.
          1    1    1    2  502    0  0.90779919839E+01 -0.23089315433E+02 -0.67825347263E+03  0.67870707935E+03  0.00000000000E+00 0.  1.
         22    1    1    2    0    0  0.35573829195E+02  0.45515898683E+02  0.86020935502E+01  0.58405396754E+02  0.00000000000E+00 0. -1.
         22    1    1    2    0    0 -0.37152598863E+02 -0.49106266228E+02 -0.71835069588E+01  0.61994707495E+02  0.00000000000E+00 0. -1.
</event>
<event>
 6    1  0.4069520E-005  0.5743165E+02  0.7818608E-02  0.1458660E+00
          2   -1    0    0  502    0  0.00000000000E+00  0.00000000000E+00  0.16427565048E+03  0.16427565048E+03  0.00000000000E+00 0.  1.
          1   -1    0    0  501    0 -0.00000000000E+00 -0.00000000000E+00 -0.13260565978E+04  0.13260565978E+04  0.00000000000E+00 0. -1.
          2    1    1    2  501    0 -0.27865427679E+02  0.14295477436E+02 -0.25975589911E+02  0.40688745448E+02  0.00000000000E+00 0.  1.
          1    1    1    2  502    0  0.10145321100E+02  0.21099396358E+02 -0.12633516245E+04  0.12635685336E+04  0.00000000000E+00 0. -1.
         22    1    1    2    0    0  0.26777354267E+02 -0.32795208938E+01  0.14563961424E+03  0.14811711310E+03  0.00000000000E+00 0.  1.
         22    1    1    2    0    0 -0.90572476877E+01 -0.32115352900E+02 -0.18093347131E+02  0.37957856077E+02  0.00000000000E+00 0. -1.
</event>
<event>
 6    1  0.4069520E-005  0.4588196E+03  0.7818608E-02  0.1114697E+00
          2   -1    0    0  502    0  0.00000000000E+00  0.00000000000E+00  0.46268768216E+03  0.46268768216E+03  0.00000000000E+00 0. -1.
          1   -1    0    0  501    0 -0.00000000000E+00 -0.00000000000E+00 -0.11427628213E+04  0.11427628213E+04  0.00000000000E+00 0. -1.
          2    1    1    2  501    0  0.16444032568E+03  0.11663813769E+03 -0.47918411156E+02  0.20722270628E+03  0.00000000000E+00 0. -1.
          1    1    1    2  502    0 -0.15801905509E+03 -0.13464743020E+03 -0.99310657093E+03  0.10145741045E+04  0.00000000000E+00 0. -1.
         22    1    1    2    0    0  0.23989375818E+02 -0.30803507831E+02  0.34268738174E+02  0.51948942847E+02  0.00000000000E+00 0.  1.
         22    1    1    2    0    0 -0.30410646400E+02  0.48812800346E+02  0.32668110475E+03  0.33170474988E+03  0.00000000000E+00 0. -1.
</event>
<event>
 6    1  0.4069520E-005  0.1246368E+03  0.7818608E-02  0.1283606E+00
          2   -1    0    0  502    0  0.00000000000E+00  0.00000000000E+00  0.47617313707E+03  0.47617313707E+03  0.00000000000E+00 0. -1.
          1   -1    0    0  501    0 -0.00000000000E+00 -0.00000000000E+00 -0.17749720530E+03  0.17749720530E+03  0.00000000000E+00 0. -1.
          2    1    1    2  501    0  0.19799142399E+02  0.14311737933E+02  0.21763246476E+02  0.32718049752E+02  0.00000000000E+00 0. -1.
          1    1    1    2  502    0 -0.85844343332E+01  0.60688373720E+02 -0.15345067936E+03  0.16523886412E+03  0.00000000000E+00 0. -1.
         22    1    1    2    0    0  0.48081554054E+02  0.63973316969E+01  0.16063298839E+03  0.16779665865E+03  0.00000000000E+00 0.  1.
         22    1    1    2    0    0 -0.59296262119E+02 -0.81397443351E+02  0.26973037626E+03  0.28791676985E+03  0.00000000000E+00 0. -1.
</event>
<event>
 6    1  0.4069520E-005  0.1309382E+03  0.7818608E-02  0.1270843E+00
          2   -1    0    0  502    0  0.00000000000E+00  0.00000000000E+00  0.52588280598E+03  0.52588280598E+03  0.00000000000E+00 0.  1.
          1   -1    0    0  501    0 -0.00000000000E+00 -0.00000000000E+00 -0.98054078762E+03  0.98054078762E+03  0.00000000000E+00 0.  1.
          2    1    1    2  501    0 -0.47259359281E+02  0.29756005407E+02  0.47818573107E+02  0.73521988762E+02  0.00000000000E+00 0.  1.
          1    1    1    2  502    0  0.32257430833E+02 -0.15342074480E+02 -0.95829227477E+03  0.95895777018E+03  0.00000000000E+00 0.  1.
         22    1    1    2    0    0  0.61443362574E+02  0.15746967214E+02  0.14548073843E+03  0.15870695963E+03  0.00000000000E+00 0.  1.
         22    1    1    2    0    0 -0.46441434126E+02 -0.30160898142E+02  0.31033498160E+03  0.31523687504E+03  0.00000000000E+00 0.  1.
</event>
<event>
 6    1  0.4069520E-005  0.9372048E+02  0.7818608E-02  0.1386545E+00
          2   -1    0    0  502    0  0.00000000000E+00  0.00000000000E+00  0.30106802720E+02  0.30106802720E+02  0.00000000000E+00 0. -1.
          1   -1    0    0  501    0 -0.00000000000E+00 -0.00000000000E+00 -0.58014971308E+03  0.58014971308E+03  0.00000000000E+00 0.  1.
          2    1    1    2  501    0 -0.40466395973E+02  0.15308663150E+02 -0.22550923343E+03  0.22962207806E+03  0.00000000000E+00 0. -1.
          1    1    1    2  502    0 -0.28428842058E+01 -0.22592166596E+02 -0.18241252410E+03  0.18382822670E+03  0.00000000000E+00 0.  1.
         22    1    1    2    0    0  0.45195474874E+02 -0.11485490576E+02 -0.16248726595E+03  0.16904632217E+03  0.00000000000E+00 0.  1.
         22    1    1    2    0    0 -0.18861946952E+01  0.18768994021E+02  0.20366113116E+02  0.27759888877E+02  0.00000000000E+00 0. -1.
</event>
<event>
 6    1  0.4069520E-005  0.9105827E+02  0.7818608E-02  0.1301692E+00
          2   -1    0    0  502    0  0.00000000000E+00  0.00000000000E+00  0.26753644670E+03  0.26753644670E+03  0.00000000000E+00 0.  1.
          1   -1    0    0  501    0 -0.00000000000E+00 -0.00000000000E+00 -0.58416538267E+03  0.58416538267E+03  0.00000000000E+00 0.  1.
          2    1    1    2  501    0  0.43426929940E+02  0.20936419324E+02  0.48336082788E+02  0.68268651645E+02  0.00000000000E+00 0.  1.
          1    1    1    2  502    0 -0.10780559821E+02 -0.31899031067E+02 -0.55212823006E+03  0.55315400305E+03  0.00000000000E+00 0.  1.
         22    1    1    2    0    0 -0.80437007560E+02 -0.99449011739E+01  0.10026722072E+03  0.12892838630E+03  0.00000000000E+00 0.  1.
         22    1    1    2    0    0  0.47790637441E+02  0.20907512917E+02  0.86895990589E+02  0.10135078837E+03  0.00000000000E+00 0.  1.
</event>
<event>
 6    1  0.4069520E-005  0.6794496E+02  0.7818608E-02  0.1376136E+00
          2   -1    0    0  502    0  0.00000000000E+00  0.00000000000E+00  0.78069495351E+02  0.78069495351E+02  0.00000000000E+00 0. -1.
          1   -1    0    0  501    0 -0.00000000000E+00 -0.00000000000E+00 -0.70445631685E+03  0.70445631685E+03  0.00000000000E+00 0. -1.
          2    1    1    2  501    0 -0.37357665292E+01 -0.25697999210E+02 -0.42250713721E+02  0.49593002782E+02  0.00000000000E+00 0. -1.
          1    1    1    2  502    0 -0.69694500127E+01  0.27195593705E+02 -0.60527703065E+03  0.60592776581E+03  0.00000000000E+00 0. -1.
         22    1    1    2    0    0 -0.10938865154E+02 -0.52576492421E+02 -0.20664787874E+02  0.57541113858E+02  0.00000000000E+00 0.  1.
         22    1    1    2    0    0  0.21644081696E+02  0.51078897926E+02  0.41805710744E+02  0.69463929752E+02  0.00000000000E+00 0. -1.
</event>
<event>
 6    1  0.4069520E-005  0.1155783E+03  0.7818608E-02  0.1308890E+00
          2   -1    0    0  502    0  0.00000000000E+00  0.00000000000E+00  0.30957842476E+03  0.30957842476E+03  0.00000000000E+00 0.  1.
          1   -1    0    0  501    0 -0.00000000000E+00 -0.00000000000E+00 -0.42732020472E+03  0.42732020472E+03  0.00000000000E+00 0.  1.
          2    1    1    2  501    0 -0.27499328078E+02  0.26831365544E+02  0.51573387649E+02  0.64311348418E+02  0.00000000000E+00 0.  1.
          1    1    1    2  502    0  0.10483620180E+03 -0.21261106495E+02 -0.39078005456E+03  0.40515640794E+03  0.00000000000E+00 0.  1.
         22    1    1    2    0    0 -0.10953235802E+03  0.14723181448E+02  0.14820084936E+03  0.18487185096E+03  0.00000000000E+00 0.  1.
         22    1    1    2    0    0  0.32195484305E+02 -0.20293440497E+02  0.73264037595E+02  0.82559022170E+02  0.00000000000E+00 0.  1.
</event>
<event>
 6    1  0.4069520E-005  0.6179919E+03  0.7818608E-02  0.1105365E+00
          2   -1    0    0  502    0  0.00000000000E+00  0.00000000000E+00  0.46026608280E+03  0.46026608280E+03  0.00000000000E+00 0. -1.
          1   -1    0    0  501    0 -0.00000000000E+00 -0.00000000000E+00 -0.41662365186E+03  0.41662365186E+03  0.00000000000E+00 0. -1.
          2    1    1    2  501    0  0.17248606551E+03 -0.10517857413E+03 -0.13425239648E+03  0.24256479796E+03  0.00000000000E+00 0. -1.
          1    1    1    2  502    0  0.99832656683E+02  0.10501043465E+03 -0.13618496614E+03  0.19884691531E+03  0.00000000000E+00 0. -1.
         22    1    1    2    0    0 -0.27697879793E+03  0.19890438346E+02  0.27169905911E+03  0.38850130342E+03  0.00000000000E+00 0. -1.
         22    1    1    2    0    0  0.46600757357E+01 -0.19722298869E+02  0.42380734452E+02  0.46976717970E+02  0.00000000000E+00 0. -1.
</event>
<event>
 6    1  0.4069520E-005  0.4876021E+03  0.7818608E-02  0.1144229E+00
          2   -1    0    0  502    0  0.00000000000E+00  0.00000000000E+00  0.11292434580E+03  0.11292434580E+03  0.00000000000E+00 0. -1.
          1   -1    0    0  501    0 -0.00000000000E+00 -0.00000000000E+00 -0.25594990153E+04  0.25594990153E+04  0.00000000000E+00 0.  1.
          2    1    1    2  501    0 -0.17033413238E+03 -0.29187734750E+03 -0.55277909730E+03  0.64789723958E+03  0.00000000000E+00 0. -1.
          1    1    1    2  502    0  0.28962704145E+03  0.38527142938E+03 -0.16022818791E+04  0.16732080318E+04  0.00000000000E+00 0.  1.
         22    1    1    2    0    0 -0.10969159561E+03 -0.80925344408E+02 -0.30272265513E+03  0.33199723409E+03  0.00000000000E+00 0.  1.
         22    1    1    2    0    0 -0.96013134610E+01 -0.12468737464E+02  0.11208962038E+02  0.19320855677E+02  0.00000000000E+00 0.  1.
</event>
<event>
 6    1  0.4069520E-005  0.1663850E+03  0.7818608E-02  0.1252797E+00
          2   -1    0    0  502    0  0.00000000000E+00  0.00000000000E+00  0.60539869440E+03  0.60539869440E+03  0.00000000000E+00 0. -1.
          1   -1    0    0  501    0 -0.00000000000E+00 -0.00000000000E+00 -0.62167867684E+02  0.62167867684E+02  0.00000000000E+00 0. -1.
          2    1    1    2  501    0  0.58816891896E+02 -0.60433217952E+02  0.47120829725E+02  0.96602138683E+02  0.00000000000E+00 0. -1.
          1    1    1    2  502    0 -0.11564173744E+03  0.80679076516E+02  0.30552686430E+03  0.33649485826E+03  0.00000000000E+00 0. -1.
         22    1    1    2    0    0 -0.28739846893E+02 -0.23402258398E+02  0.11300964319E+03  0.11893201399E+03  0.00000000000E+00 0. -1.
         22    1    1    2    0    0  0.85564692441E+02  0.31563998334E+01  0.77573489497E+02  0.11553755115E+03  0.00000000000E+00 0.  1.
</event>
<event>
 6    1  0.4069520E-005  0.1065746E+03  0.7818608E-02  0.1313947E+00
          2   -1    0    0  502    0  0.00000000000E+00  0.00000000000E+00  0.75406389363E+02  0.75406389363E+02  0.00000000000E+00 0.  1.
          1   -1    0    0  501    0 -0.00000000000E+00 -0.00000000000E+00 -0.77853084433E+03  0.77853084433E+03  0.00000000000E+00 0.  1.
          2    1    1    2  501    0  0.15223571274E+02  0.14304466649E+02 -0.49316709316E+02  0.53558497983E+02  0.00000000000E+00 0.  1.
          1    1    1    2  502    0 -0.45030545468E+02 -0.50029720053E+02 -0.66406235583E+03  0.66746500683E+03  0.00000000000E+00 0.  1.
         22    1    1    2    0    0 -0.40925608328E+02 -0.16940337863E+02  0.19185091563E+01  0.44334649444E+02  0.00000000000E+00 0.  1.
         22    1    1    2    0    0  0.70732582523E+02  0.52665591268E+02  0.83361010199E+01  0.88579079438E+02  0.00000000000E+00 0.  1.
</event>
<event>
 6    1  0.4069520E-005  0.1633459E+03  0.7818608E-02  0.1251300E+00
          2   -1    0    0  502    0  0.00000000000E+00  0.00000000000E+00  0.77008467348E+03  0.77008467348E+03  0.00000000000E+00 0. -1.
          1   -1    0    0  501    0 -0.00000000000E+00 -0.00000000000E+00 -0.70039041462E+02  0.70039041462E+02  0.00000000000E+00 0. -1.
          2    1    1    2  501    0  0.27237935915E+02  0.74231476200E+02  0.28618857316E+03  0.29691095739E+03  0.00000000000E+00 0. -1.
          1    1    1    2  502    0 -0.82307745004E+02 -0.65060534757E+02 -0.38700186470E+01  0.10498769030E+03  0.00000000000E+00 0. -1.
         22    1    1    2    0    0 -0.29313410914E+02  0.27736156177E+02  0.12623394200E+03  0.13252765195E+03  0.00000000000E+00 0.  1.
         22    1    1    2    0    0  0.84383220003E+02 -0.36907097619E+02  0.29149313551E+03  0.30569741530E+03  0.00000000000E+00 0. -1.
</event>
<event>
 6    1  0.4069520E-005  0.1446253E+03  0.7818608E-02  0.1208606E+00
          2   -1    0    0  502    0  0.00000000000E+00  0.00000000000E+00  0.14169738203E+04  0.14169738203E+04  0.00000000000E+00 0.  1.
          1   -1    0    0  501    0 -0.00000000000E+00 -0.00000000000E+00 -0.53426337433E+03  0.53426337433E+03  0.00000000000E+00 0.  1.
          2    1    1    2  501    0 -0.18379827824E+02  0.10119953666E+03  0.29742566716E+03  0.31470810567E+03  0.00000000000E+00 0.  1.
          1    1    1    2  502    0 -0.13031691645E+03 -0.49137010281E+02 -0.50689126315E+03  0.52567641867E+03  0.00000000000E+00 0.  1.
         22    1    1    2    0    0 -0.14505216383E+02  0.19691111076E+02  0.12045421604E+03  0.12291199827E+03  0.00000000000E+00 0. -1.
         22    1    1    2    0    0  0.16320196066E+03 -0.71753637452E+02  0.97172182597E+03  0.98794067206E+03  0.00000000000E+00 0. -1.
</event>
<event>
 6    1  0.5124215E-005  0.7069188E+02  0.7818608E-02  0.1358648E+00
          2   -1    0    0  502    0  0.00000000000E+00  0.00000000000E+00  0.22789142430E+03  0.22789142430E+03  0.00000000000E+00 0.  1.
          1   -1    0    0  501    0 -0.00000000000E+00 -0.00000000000E+00 -0.21133154893E+04  0.21133154893E+04  0.00000000000E+00 0.  1.
          2    1    1    2  501    0  0.19709822585E+01  0.21710412899E+02 -0.94778656393E+01  0.23770922077E+02  0.00000000000E+00 0.  1.
          1    1    1    2  502    0 -0.11764118192E+01  0.46100094236E+02 -0.20747506005E+04  0.20752630332E+04  0.00000000000E+00 0.  1.
         22    1    1    2    0    0  0.43728056237E+01 -0.77902938816E+02  0.21133222841E+03  0.22527605304E+03  0.00000000000E+00 0.  1.
         22    1    1    2    0    0 -0.51673760630E+01  0.10092431682E+02 -0.12527827260E+02  0.16896905293E+02  0.00000000000E+00 0. -1.
</event>
<event>
 6    1  0.4069520E-005  0.1192963E+03  0.7818608E-02  0.1315695E+00
          2   -1    0    0  502    0  0.00000000000E+00  0.00000000000E+00  0.12348435554E+03  0.12348435554E+03  0.00000000000E+00 0.  1.
          1   -1    0    0  501    0 -0.00000000000E+00 -0.00000000000E+00 -0.17545105384E+03  0.17545105384E+03  0.00000000000E+00 0.  1.
          2    1    1    2  501    0  0.24175299142E+02 -0.35859969660E+02 -0.93544797431E+02  0.10305829243E+03  0.00000000000E+00 0.  1.
          1    1    1    2  502    0  0.28390608417E+02  0.27714459037E+02 -0.18954286060E+02  0.43970249556E+02  0.00000000000E+00 0.  1.
         22    1    1    2    0    0  0.88054024229E+01  0.29307288062E+02  0.78745862156E+02  0.84482915741E+02  0.00000000000E+00 0.  1.
         22    1    1    2    0    0 -0.61371309981E+02 -0.21161777439E+02 -0.18213476958E+02  0.67423951650E+02  0.00000000000E+00 0.  1.
</event>
<event>
 6    1  0.4069520E-005  0.4447519E+03  0.7818608E-02  0.1127275E+00
          2   -1    0    0  502    0  0.00000000000E+00  0.00000000000E+00  0.26533029566E+03  0.26533029566E+03  0.00000000000E+00 0.  1.
          1   -1    0    0  501    0 -0.00000000000E+00 -0.00000000000E+00 -0.26884534518E+04  0.26884534518E+04  0.00000000000E+00 0. -1.
          2    1    1    2  501    0  0.94087060787E+02 -0.82949398338E+02 -0.81170249343E+02  0.14940410661E+03  0.00000000000E+00 0.  1.
          1    1    1    2  502    0  0.98404367083E+02 -0.11787761375E+03 -0.24678886546E+04  0.24726611096E+04  0.00000000000E+00 0. -1.
         22    1    1    2    0    0 -0.16202457715E+03  0.19359010424E+03  0.14871647265E+03  0.29299433663E+03  0.00000000000E+00 0.  1.
         22    1    1    2    0    0 -0.30466850717E+02  0.72369078444E+01 -0.22780724856E+02  0.38724194668E+02  0.00000000000E+00 0.  1.
</event>
<event>
 6    1  0.4069520E-005  0.7590141E+02  0.7818608E-02  0.1367489E+00
          2   -1    0    0  502    0  0.00000000000E+00  0.00000000000E+00  0.74345486515E+02  0.74345486515E+02  0.00000000000E+00 0.  1.
          1   -1    0    0  501    0 -0.00000000000E+00 -0.00000000000E+00 -0.72179327010E+03  0.72179327010E+03  0.00000000000E+00 0. -1.
          2    1    1    2  501    0 -0.11158884514E+01 -0.25818783870E+02 -0.71316913764E+02  0.75854841615E+02  0.00000000000E+00 0.  1.
          1    1    1    2  502    0  0.29967584199E+02  0.59337773101E+02 -0.58055536980E+03  0.58434883830E+03  0.00000000000E+00 0. -1.
         22    1    1    2    0    0 -0.10831024727E+01 -0.48513013794E+02  0.56850233799E+02  0.74743793731E+02  0.00000000000E+00 0.  1.
         22    1    1    2    0    0 -0.27768593275E+02  0.14994024562E+02 -0.52425733824E+02  0.61191282975E+02  0.00000000000E+00 0.  1.
</event>
<event>
 6    1  0.4069520E-005  0.1219282E+03  0.7818608E-02  0.1262981E+00
          2   -1    0    0  502    0  0.00000000000E+00  0.00000000000E+00  0.15464206052E+03  0.15464206052E+03  0.00000000000E+00 0.  1.
          1   -1    0    0  501    0 -0.00000000000E+00 -0.00000000000E+00 -0.37963148175E+03  0.37963148175E+03  0.00000000000E+00 0. -1.
          2    1    1    2  501    0  0.42788869862E+02  0.19850105447E+02 -0.13400418461E+02  0.49035551239E+02  0.00000000000E+00 0.  1.
          1    1    1    2  502    0  0.42204350191E+02  0.71423080859E+01 -0.30326656830E+03  0.30627247866E+03  0.00000000000E+00 0. -1.
         22    1    1    2    0    0 -0.39904952721E+02 -0.72859597240E+02  0.76391306364E+02  0.11285635937E+03  0.00000000000E+00 0.  1.
         22    1    1    2    0    0 -0.45088267332E+02  0.45867183707E+02  0.15286259163E+02  0.66109153008E+02  0.00000000000E+00 0.  1.
</event>
<event>
 6    1  0.4069520E-005  0.1531662E+03  0.7818608E-02  0.1199089E+00
          2   -1    0    0  502    0  0.00000000000E+00  0.00000000000E+00  0.17861031361E+03  0.17861031361E+03  0.00000000000E+00 0.  1.
          1   -1    0    0  501    0 -0.00000000000E+00 -0.00000000000E+00 -0.32127863662E+04  0.32127863662E+04  0.00000000000E+00 0.  1.
          2    1    1    2  501    0  0.90113465805E+02 -0.10065987832E+03  0.87596564254E+02  0.16101554550E+03  0.00000000000E+00 0.  1.
          1    1    1    2  502    0 -0.38196366450E+02  0.50758384861E+02 -0.30769651656E+04  0.30776208354E+04  0.00000000000E+00 0.  1.
         22    1    1    2    0    0  0.26190760593E+02 -0.25207772099E+02 -0.25145066403E+01  0.36437761434E+02  0.00000000000E+00 0. -1.
         22    1    1    2    0    0 -0.78107859947E+02  0.75109265561E+02 -0.42292944561E+02  0.11632253745E+03  0.00000000000E+00 0. -1.
</event>
<event>
 6    1  0.4069520E-005  0.1338570E+03  0.7818608E-02  0.1308517E+00
          2   -1    0    0  502    0  0.00000000000E+00  0.00000000000E+00  0.65354889323E+02  0.65354889323E+02  0.00000000000E+00 0. -1.
          1   -1    0    0  501    0 -0.00000000000E+00 -0.00000000000E+00 -0.72076888189E+03  0.72076888189E+03  0.00000000000E+00 0. -1.
          2    1    1    2  501    0  0.64222715368E+02 -0.84496754509E+02 -0.58245294303E+03  0.59204365509E+03  0.00000000000E+00 0. -1.
          1    1    1    2  502    0  0.57235709556E+01  0.22564886078E+02 -0.64569389442E+00  0.23288414905E+02  0.00000000000E+00 0. -1.
         22    1    1    2    0    0 -0.72450183403E+02  0.86469848280E+02 -0.22254178329E+02  0.11498396492E+03  0.00000000000E+00 0. -1.
         22    1    1    2    0    0  0.25038970794E+01 -0.24537979849E+02 -0.50061177309E+02  0.55807736285E+02  0.00000000000E+00 0.  1.
</event>
<event>
 6    1  0.4069520E-005  0.1218521E+03  0.7818608E-02  0.1289558E+00
          2   -1    0    0  502    0  0.00000000000E+00  0.00000000000E+00  0.78788360135E+03  0.78788360135E+03  0.00000000000E+00 0. -1.
          1   -1    0    0  501    0 -0.00000000000E+00 -0.00000000000E+00 -0.54336332643E+02  0.54336332643E+02  0.00000000000E+00 0. -1.
          2    1    1    2  501    0 -0.70149949344E+02 -0.62600393444E+02  0.41537500050E+02  0.10278710310E+03  0.00000000000E+00 0. -1.
          1    1    1    2  502    0  0.10964873090E+02  0.95333417967E+02  0.42542059797E+03  0.43610936037E+03  0.00000000000E+00 0. -1.
         22    1    1    2    0    0  0.44114248039E+02 -0.14394861775E+02  0.27443000100E+03  0.27832553669E+03  0.00000000000E+00 0. -1.
         22    1    1    2    0    0  0.15070828214E+02 -0.18338162748E+02 -0.78408303153E+01  0.24997933836E+02  0.00000000000E+00 0. -1.
</event>
<event>
 6    1  0.4069520E-005  0.3775450E+03  0.7818608E-02  0.1178269E+00
          2   -1    0    0  502    0  0.00000000000E+00  0.00000000000E+00  0.35704843110E+03  0.35704843110E+03  0.00000000000E+00 0. -1.
          1   -1    0    0  501    0 -0.00000000000E+00 -0.00000000000E+00 -0.89788259580E+03  0.89788259580E+03  0.00000000000E+00 0.  1.
          2    1    1    2  501    0  0.52406698842E+02 -0.79499389698E+02 -0.15736625543E+01  0.95231777573E+02  0.00000000000E+00 0. -1.
          1    1    1    2  502    0  0.14144003287E+03 -0.81782485175E+02 -0.77483957187E+03  0.79187752836E+03  0.00000000000E+00 0.  1.
         22    1    1    2    0    0  0.14853987321E+02 -0.39620447195E+01  0.67554604882E+01  0.16792110770E+02  0.00000000000E+00 0. -1.
         22    1    1    2    0    0 -0.20870071904E+03  0.16524391959E+03  0.22882360924E+03  0.35102961020E+03  0.00000000000E+00 0. -1.
</event>
<event>
 6    1  0.4069520E-005  0.1005366E+03  0.7818608E-02  0.1390766E+00
          2   -1    0    0  502    0  0.00000000000E+00  0.00000000000E+00  0.21604876194E+03  0.21604876194E+03  0.00000000000E+00 0. -1.
          1   -1    0    0  501    0 -0.00000000000E+00 -0.00000000000E+00 -0.11466284569E+03  0.11466284569E+03  0.00000000000E+00 0. -1.
          2    1    1    2  501    0  0.70819244139E+01 -0.19265577383E+02 -0.19284447718E+02  0.28163913952E+02  0.00000000000E+00 0. -1.
          1    1    1    2  502    0 -0.93430939503E+02  0.45675965676E+02  0.10149075316E+03  0.14531347933E+03  0.00000000000E+00 0. -1.
         22    1    1    2    0    0  0.14151625234E+02  0.18871698225E+01  0.65412907054E+02  0.66952806632E+02  0.00000000000E+00 0. -1.
         22    1    1    2    0    0  0.72197389856E+02 -0.28297558115E+02 -0.46233296254E+02  0.90281407719E+02  0.00000000000E+00 0.  1.
</event>
<event>
 6    1  0.4069520E-005  0.9505060E+02  0.7818608E-02  0.1407239E+00
          2   -1    0    0  502    0  0.00000000000E+00  0.00000000000E+00  0.10571476357E+03  0.10571476357E+03  0.00000000000E+00 0.  1.
          1   -1    0    0  501    0 -0.00000000000E+00 -0.00000000000E+00 -0.26521209503E+03  0.26521209503E+03  0.00000000000E+00 0.  1.
          2    1    1    2  501    0 -0.45716818604E+01 -0.57666404285E+02 -0.42093554087E+02  0.71541468771E+02  0.00000000000E+00 0.  1.
          1    1    1    2  502    0 -0.23653988661E+02  0.68770824266E+02 -0.15330813881E+03  0.16968300703E+03  0.00000000000E+00 0.  1.
         22    1    1    2    0    0 -0.11425642353E+02  0.62224414836E+01  0.72114571779E+02  0.73278752337E+02  0.00000000000E+00 0.  1.
         22    1    1    2    0    0  0.39651312874E+02 -0.17326861465E+02 -0.36210210354E+02  0.56423630464E+02  0.00000000000E+00 0.  1.
</event>
<event>
 6    1  0.4069520E-005  0.1435845E+03  0.7818608E-02  0.1285888E+00
          2   -1    0    0  502    0  0.00000000000E+00  0.00000000000E+00  0.55014032265E+02  0.55014032265E+02  0.00000000000E+00 0. -1.
          1   -1    0    0  501    0 -0.00000000000E+00 -0.00000000000E+00 -0.58934175417E+03  0.58934175417E+03  0.00000000000E+00 0. -1.
          2    1    1    2  501    0  0.37091104651E+02 -0.33873705910E+02 -0.11519932590E+03  0.12567443130E+03  0.00000000000E+00 0. -1.
          1    1    1    2  502    0 -0.13149617318E+03 -0.29468115202E+02 -0.20266570809E+03  0.24337831171E+03  0.00000000000E+00 0. -1.
         22    1    1    2    0    0  0.79151616758E+02  0.37060502376E+02 -0.22691836932E+03  0.24316744356E+03  0.00000000000E+00 0. -1.
         22    1    1    2    0    0  0.15253451772E+02  0.26281318736E+02  0.10455681397E+02  0.32135599869E+02  0.00000000000E+00 0. -1.
</event>
<event>
 6    1  0.4069520E-005  0.9443891E+02  0.7818608E-02  0.1309205E+00
          2   -1    0    0  502    0  0.00000000000E+00  0.00000000000E+00  0.62358755374E+03  0.62358755374E+03  0.00000000000E+00 0. -1.
          1   -1    0    0  501    0 -0.00000000000E+00 -0.00000000000E+00 -0.15563406593E+03  0.15563406593E+03  0.00000000000E+00 0.  1.
          2    1    1    2  501    0  0.43456978892E+02  0.18920233494E+02  0.33680294252E+03  0.34012160522E+03  0.00000000000E+00 0. -1.
          1    1    1    2  502    0 -0.18353098561E+02 -0.22874506982E+02 -0.13896950459E+03  0.14203028728E+03  0.00000000000E+00 0.  1.
         22    1    1    2    0    0  0.26894539739E+02 -0.36626722381E+02  0.17839460226E+03  0.18409092095E+03  0.00000000000E+00 0. -1.
         22    1    1    2    0    0 -0.51998420070E+02  0.40580995869E+02  0.91725447618E+02  0.11297880623E+03  0.00000000000E+00 0. -1.
</event>
<event>
 6    1  0.4069520E-005  0.6876969E+02  0.7818608E-02  0.1366040E+00
          2   -1    0    0  502    0  0.00000000000E+00  0.00000000000E+00  0.38871368078E+03  0.38871368078E+03  0.00000000000E+00 0.  1.
          1   -1    0    0  501    0 -0.00000000000E+00 -0.00000000000E+00 -0.36150166276E+02  0.36150166276E+02  0.00000000000E+00 0.  1.
          2    1    1    2  501    0 -0.15219729383E+02  0.15852955209E+02  0.74992491872E+01  0.23220574707E+02  0.00000000000E+00 0.  1.
          1    1    1    2  502    0  0.49845930051E+02  0.17469213387E+01  0.22751842490E+02  0.54820751668E+02  0.00000000000E+00 0.  1.
         22    1    1    2    0    0  0.18314383801E+02  0.54201079968E+01 -0.28378651510E+00  0.19101695200E+02  0.00000000000E+00 0.  1.
         22    1    1    2    0    0 -0.52940584469E+02 -0.23019984545E+02  0.32259620934E+03  0.32772082548E+03  0.00000000000E+00 0.  1.
</event>
<event>
 6    1  0.4069520E-005  0.1665829E+03  0.7818608E-02  0.1320284E+00
          2   -1    0    0  502    0  0.00000000000E+00  0.00000000000E+00  0.40681584772E+02  0.40681584772E+02  0.00000000000E+00 0. -1.
          1   -1    0    0  501    0 -0.00000000000E+00 -0.00000000000E+00 -0.10635912909E+04  0.10635912909E+04  0.00000000000E+00 0. -1.
          2    1    1    2  501    0  0.38095586411E+02 -0.10120827730E+02 -0.11632410125E+03  0.12282101363E+03  0.00000000000E+00 0. -1.
          1    1    1    2  502    0  0.74689283828E+02 -0.16549048750E+02 -0.73959142853E+03  0.74353738392E+03  0.00000000000E+00 0. -1.
         22    1    1    2    0    0 -0.12281614192E+03  0.24114314018E+02 -0.18126915198E+03  0.22028120736E+03  0.00000000000E+00 0. -1.
         22    1    1    2    0    0  0.10031271678E+02  0.25555624617E+01  0.14274975592E+02  0.17633270800E+02  0.00000000000E+00 0. -1.
</event>
<event>
 6    1  0.4069520E-005  0.1342596E+03  0.7818608E-02  0.1257504E+00
          2   -1    0    0  502    0  0.00000000000E+00  0.00000000000E+00  0.93513727996E+02  0.93513727996E+02  0.00000000000E+00 0. -1.
          1   -1    0    0  501    0 -0.00000000000E+00 -0.00000000000E+00 -0.89240318369E+03  0.89240318369E+03  0.00000000000E+00 0. -1.
          2    1    1    2  501    0  0.13698202947E+01  0.12591529166E+03 -0.73952020610E+03  0.75016443018E+03  0.00000000000E+00 0. -1.
          1    1    1    2  502    0 -0.22873613643E+02 -0.83737307092E+02 -0.53425679869E+02  0.10192861261E+03  0.00000000000E+00 0. -1.
         22    1    1    2    0    0 -0.98281467215E+01  0.13926790286E+02 -0.52026402895E+02  0.54747552949E+02  0.00000000000E+00 0. -1.
         22    1    1    2    0    0  0.31331940070E+02 -0.56104774853E+02  0.46082833169E+02  0.79076315941E+02  0.00000000000E+00 0.  1.
</event>
<event>
 6    1  0.4069520E-005  0.3677930E+03  0.7818608E-02  0.1155371E+00
          2   -1    0    0  502    0  0.00000000000E+00  0.00000000000E+00  0.28991125071E+03  0.28991125071E+03  0.00000000000E+00 0. -1.
          1   -1    0    0  501    0 -0.00000000000E+00 -0.00000000000E+00 -0.48803499578E+03  0.48803499578E+03  0.00000000000E+00 0. -1.
          2    1    1    2  501    0  0.66823508895E+02 -0.92150995948E+02 -0.78113696854E+02  0.13805410907E+03  0.00000000000E+00 0. -1.
          1    1    1    2  502    0  0.27334457247E+02  0.24413162920E+02 -0.35129804780E+03  0.35320460567E+03  0.00000000000E+00 0. -1.
         22    1    1    2    0    0 -0.97335197656E+02  0.95716803927E+02  0.21339591380E+03  0.25332521249E+03  0.00000000000E+00 0. -1.
         22    1    1    2    0    0  0.31772315144E+01 -0.27978970898E+02  0.17892085786E+02  0.33362319260E+02  0.00000000000E+00 0.  1.
</event>
<event>
 6    1  0.4069520E-005  0.1590241E+03  0.7818608E-02  0.1292686E+00
          2   -1    0    0  502    0  0.00000000000E+00  0.00000000000E+00  0.67661150871E+02  0.67661150871E+02  0.00000000000E+00 0. -1.
          1   -1    0    0  501    0 -0.00000000000E+00 -0.00000000000E+00 -0.28477411835E+04  0.28477411835E+04  0.00000000000E+00 0.  1.
          2    1    1    2  501    0  0.61088172475E+01 -0.13780169413E+03 -0.50815403923E+03  0.52654264038E+03  0.00000000000E+00 0. -1.
          1    1    1    2  502    0 -0.14358489158E+02  0.15082960806E+03 -0.22614182100E+04  0.22664880449E+04  0.00000000000E+00 0.  1.
         22    1    1    2    0    0  0.85571195609E+01  0.17734242186E+02  0.50414039203E+02  0.54123035668E+02  0.00000000000E+00 0. -1.
         22    1    1    2    0    0 -0.30744765031E+00 -0.30762156120E+02 -0.60921822602E+02  0.68248613483E+02  0.00000000000E+00 0.  1.
</event>
<event>
 6    1  0.4069520E-005  0.4661719E+03  0.7818608E-02  0.1083823E+00
          2   -1    0    0  502    0  0.00000000000E+00  0.00000000000E+00  0.73952098284E+03  0.73952098284E+03  0.00000000000E+00 0.  1.
          1   -1    0    0  501    0 -0.00000000000E+00 -0.00000000000E+00 -0.44099838987E+03  0.44099838987E+03  0.00000000000E+00 0. -1.
          2    1    1    2  501    0 -0.19452922184E+03 -0.25671630206E+03 -0.10362979329E+02  0.32226118170E+03  0.00000000000E+00 0.  1.
          1    1    1    2  502    0  0.30345905643E+03  0.36524137136E+03 -0.18000955669E+02  0.47519753018E+03  0.00000000000E+00 0. -1.
         22    1    1    2    0    0 -0.26113840716E+02 -0.78827713667E+02  0.25884728378E+03  0.27184123573E+03  0.00000000000E+00 0. -1.
         22    1    1    2    0    0 -0.82815993868E+02 -0.29697355639E+02  0.68039244183E+02  0.11121942511E+03  0.00000000000E+00 0. -1.
</event>
<event>
 6    1  0.4069520E-005  0.7503254E+02  0.7818608E-02  0.1345287E+00
          2   -1    0    0  502    0  0.00000000000E+00  0.00000000000E+00  0.73164620108E+02  0.73164620108E+02  0.00000000000E+00 0.  1.
          1   -1    0    0  501    0 -0.00000000000E+00 -0.00000000000E+00 -0.14807237178E+04  0.14807237178E+04  0.00000000000E+00 0. -1.
          2    1    1    2  501    0 -0.17808667279E+02 -0.17390196643E+02 -0.71337867046E+01  0.25893213054E+02  0.00000000000E+00 0.  1.
          1    1    1    2  502    0  0.32508492832E+02 -0.90984406081E+01 -0.14002280872E+04  0.14006349560E+04  0.00000000000E+00 0. -1.
         22    1    1    2    0    0 -0.17706505602E+02 -0.48523460318E+02 -0.63211278308E+01  0.52038478061E+02  0.00000000000E+00 0.  1.
         22    1    1    2    0    0  0.30066800489E+01  0.75012097569E+02  0.61239040411E+01  0.75321690816E+02  0.00000000000E+00 0.  1.
</event>
<event>
 6    1  0.4069520E-005  0.6898314E+02  0.7818608E-02  0.1454580E+00
          2   -1    0    0  502    0  0.00000000000E+00  0.00000000000E+00  0.37549790374E+02  0.37549790374E+02  0.00000000000E+00 0. -1.
          1   -1    0    0  501    0 -0.00000000000E+00 -0.00000000000E+00 -0.55194535161E+03  0.55194535161E+03  0.00000000000E+00 0. -1.
          2    1    1    2  501    0  0.27301648906E+02  0.25340501612E+02 -0.70313447563E+02  0.79570735594E+02  0.00000000000E+00 0. -1.
          1    1    1    2  502    0 -0.35709977642E+02 -0.46280438130E+02 -0.34059036487E+03  0.34557036635E+03  0.00000000000E+00 0. -1.
         22    1    1    2    0    0  0.75883830160E+01  0.37535882443E+02 -0.12863611662E+03  0.13421541092E+03  0.00000000000E+00 0. -1.
         22    1    1    2    0    0  0.81994572011E+00 -0.16595945925E+02  0.25144367822E+02  0.30138629121E+02  0.00000000000E+00 0. -1.
</event>
<event>
 6    1  0.4069520E-005  0.1727237E+03  0.7818608E-02  0.1235623E+00
          2   -1    0    0  502    0  0.00000000000E+00  0.00000000000E+00  0.50917944820E+03  0.50917944820E+03  0.00000000000E+00 0.  1.
          1   -1    0    0  501    0 -0.00000000000E+00 -0.00000000000E+00 -0.10177488642E+04  0.10177488642E+04  0.00000000000E+00 0.  1.
          2    1    1    2  501    0  0.17458471684E+02  0.12038870459E+03  0.22025635417E+03  0.25161697077E+03  0.00000000000E+00 0.  1.
          1    1    1    2  502    0  0.52158534014E+02 -0.13272148800E+03 -0.97874166507E+03  0.98907570640E+03  0.00000000000E+00 0.  1.
         22    1    1    2    0    0 -0.40663307914E+02 -0.23258376120E+02  0.23248123908E+03  0.23715392300E+03  0.00000000000E+00 0.  1.
         22    1    1    2    0    0 -0.28953697784E+02  0.35591159533E+02  0.17434655817E+02  0.49081712233E+02  0.00000000000E+00 0.  1.
</event>
<event>
 6    1  0.4069520E-005  0.1090116E+03  0.7818608E-02  0.1328320E+00
          2   -1    0    0  502    0  0.00000000000E+00  0.00000000000E+00  0.18164303367E+03  0.18164303367E+03  0.00000000000E+00 0.  1.
          1   -1    0    0  501    0 -0.00000000000E+00 -0.00000000000E+00 -0.60268425011E+03  0.60268425011E+03  0.00000000000E+00 0. -1.
          2    1    1    2  501    0 -0.43681107135E+02 -0.50921641084E+01 -0.69463236661E+01  0.44522136834E+02  0.00000000000E+00 0.  1.
          1    1    1    2  502    0  0.88307026637E+02  0.30780820592E+02 -0.54600142043E+03  0.55395229125E+03  0.00000000000E+00 0. -1.
         22    1    1    2    0    0 -0.59884333387E+02 -0.53849703955E+02  0.42878545258E+02  0.91238663102E+02  0.00000000000E+00 0.  1.
         22    1    1    2    0    0  0.15258413885E+02  0.28161047471E+02  0.89027982398E+02  0.94614192587E+02  0.00000000000E+00 0. -1.
</event>
<event>
 6    1  0.4069520E-005  0.1472141E+03  0.7818608E-02  0.1236576E+00
          2   -1    0    0  502    0  0.00000000000E+00  0.00000000000E+00  0.39562929600E+02  0.39562929600E+02  0.00000000000E+00 0. -1.
          1   -1    0    0  501    0 -0.00000000000E+00 -0.00000000000E+00 -0.89952737877E+03  0.89952737877E+03  0.00000000000E+00 0.  1.
          2    1    1    2  501    0 -0.13593114252E+03 -0.48609518500E+02 -0.27193134178E+03  0.30787467489E+03  0.00000000000E+00 0. -1.
          1    1    1    2  502    0  0.55037520618E+02 -0.29141404589E+02 -0.14103057751E+03  0.15416865417E+03  0.00000000000E+00 0.  1.
         22    1    1    2    0    0 -0.10753064020E+02  0.73418446447E+02 -0.22131225440E+03  0.23342024465E+03  0.00000000000E+00 0. -1.
         22    1    1    2    0    0  0.91646685920E+02  0.43324766423E+01 -0.22569027549E+03  0.24362673467E+03  0.00000000000E+00 0. -1.
</event>
<event>
 6    1  0.4069520E-005  0.2782024E+03  0.7818608E-02  0.1217842E+00
          2   -1    0    0  502    0  0.00000000000E+00  0.00000000000E+00  0.41079084870E+03  0.41079084870E+03  0.00000000000E+00 0.  1.
          1   -1    0    0  501    0 -0.00000000000E+00 -0.00000000000E+00 -0.21352918295E+03  0.21352918295E+03  0.00000000000E+00 0.  1.
          2    1    1    2  501    0  0.16576927249E+03 -0.13074529488E+03  0.36064665423E+02  0.21418320179E+03  0.00000000000E+00 0.  1.
          1    1    1    2  502    0 -0.15805759187E+03  0.17935432451E+03  0.10567518031E+03  0.26137601229E+03  0.00000000000E+00 0.  1.
         22    1    1    2    0    0  0.15430476758E+02 -0.49893725557E+01  0.88115309059E+02  0.89595207138E+02  0.00000000000E+00 0.  1.
         22    1    1    2    0    0 -0.23142157374E+02 -0.43619657066E+02 -0.32593489034E+02  0.59165610433E+02  0.00000000000E+00 0.  1.
</event>
<event>
 6    1  0.4069520E-005  0.8408169E+02  0.7818608E-02  0.1384744E+00
          2   -1    0    0  502    0  0.00000000000E+00  0.00000000000E+00  0.79371944257E+02  0.79371944257E+02  0.00000000000E+00 0.  1.
          1   -1    0    0  501    0 -0.00000000000E+00 -0.00000000000E+00 -0.49104451735E+03  0.49104451735E+03  0.00000000000E+00 0.  1.
          2    1    1    2  501    0  0.17399769514E+02  0.53216178644E+02 -0.31512845914E+03  0.32006352402E+03  0.00000000000E+00 0.  1.
          1    1    1    2  502    0  0.12770268766E+02 -0.59713668351E+02 -0.10153707405E+03  0.11848451105E+03  0.00000000000E+00 0.  1.
         22    1    1    2    0    0 -0.19886500586E+02 -0.18106984693E+02  0.62739909262E+02  0.68261497306E+02  0.00000000000E+00 0.  1.
         22    1    1    2    0    0 -0.10283537694E+02  0.24604474401E+02 -0.57746949167E+02  0.63606929230E+02  0.00000000000E+00 0.  1.
</event>
<event>
 6    1  0.4069520E-005  0.1887838E+03  0.7818608E-02  0.1286856E+00
          2   -1    0    0  502    0  0.00000000000E+00  0.00000000000E+00  0.12983000529E+03  0.12983000529E+03  0.00000000000E+00 0.  1.
          1   -1    0    0  501    0 -0.00000000000E+00 -0.00000000000E+00 -0.39991380256E+03  0.39991380256E+03  0.00000000000E+00 0.  1.
          2    1    1    2  501    0 -0.29151023236E+02  0.61187157608E+02 -0.12500510090E+02  0.68919613786E+02  0.00000000000E+00 0.  1.
          1    1    1    2  502    0 -0.30406640354E+02  0.32768323297E+02 -0.28725882442E+03  0.29071628609E+03  0.00000000000E+00 0.  1.
         22    1    1    2    0    0  0.67417424672E+02 -0.10447066901E+03 -0.13419871286E+02  0.12505727799E+03  0.00000000000E+00 0.  1.
         22    1    1    2    0    0 -0.78597610820E+01  0.10515188106E+02  0.43095408531E+02  0.45050629980E+02  0.00000000000E+00 0.  1.
</event>
<event>
 6    1  0.4069520E-005  0.4000190E+03  0.7818608E-02  0.1113060E+00
          2   -1    0    0  502    0  0.00000000000E+00  0.00000000000E+00  0.11819289165E+04  0.11819289165E+04  0.00000000000E+00 0.  1.
          1   -1    0    0  501    0 -0.00000000000E+00 -0.00000000000E+00 -0.21153174385E+03  0.21153174385E+03  0.00000000000E+00 0.  1.
          2    1    1    2  501    0 -0.36609970880E+03  0.28547521246E+02  0.56793062262E+03  0.67630551518E+03  0.00000000000E+00 0.  1.
          1    1    1    2  502    0  0.36976262975E+03 -0.22632722252E+02  0.93666942909E+02  0.38211273031E+03  0.00000000000E+00 0.  1.
         22    1    1    2    0    0  0.57235524608E+02  0.22243717188E+02  0.12248607446E+03  0.13701651969E+03  0.00000000000E+00 0.  1.
         22    1    1    2    0    0 -0.60898445557E+02 -0.28158516182E+02  0.18631353270E+03  0.19802589520E+03  0.00000000000E+00 0.  1.
</event>
<event>
 6    1  0.4069520E-005  0.5239794E+03  0.7818608E-02  0.1125865E+00
          2   -1    0    0  502    0  0.00000000000E+00  0.00000000000E+00  0.26786382659E+03  0.26786382659E+03  0.00000000000E+00 0. -1.
          1   -1    0    0  501    0 -0.00000000000E+00 -0.00000000000E+00 -0.35582858301E+03  0.35582858301E+03  0.00000000000E+00 0. -1.
          2    1    1    2  501    0  0.10339951629E+03 -0.26009844703E+03 -0.46334655028E+02  0.28370682468E+03  0.00000000000E+00 0. -1.
          1    1    1    2  502    0 -0.21056223165E+02  0.10162004704E+02 -0.44582244633E+02  0.50340911892E+02  0.00000000000E+00 0. -1.
         22    1    1    2    0    0 -0.68925186090E+02  0.23533752572E+03 -0.34136928266E+02  0.24758788775E+03  0.00000000000E+00 0. -1.
         22    1    1    2    0    0 -0.13418107035E+02  0.14598916605E+02  0.37089071511E+02  0.42056785278E+02  0.00000000000E+00 0.  1.
</event>
<event>
 6    1  0.4069520E-005  0.7612830E+02  0.7818608E-02  0.1396363E+00
          2   -1    0    0  502    0  0.00000000000E+00  0.00000000000E+00  0.97893944141E+02  0.97893944141E+02  0.00000000000E+00 0.  1.
          1   -1    0    0  501    0 -0.00000000000E+00 -0.00000000000E+00 -0.18959590817E+03  0.18959590817E+03  0.00000000000E+00 0.  1.
          2    1    1    2  501    0 -0.26463701929E+01  0.27628873319E+02  0.13279285486E+02  0.30768447135E+02  0.00000000000E+00 0.  1.
          1    1    1    2  502    0  0.77422329224E+01 -0.71562841402E+02 -0.97514777186E+02  0.12120360642E+03  0.00000000000E+00 0.  1.
         22    1    1    2    0    0  0.19837679629E+02  0.60739332443E+02  0.42826786229E+02  0.76921607220E+02  0.00000000000E+00 0.  1.
         22    1    1    2    0    0 -0.24933542358E+02 -0.16805364360E+02 -0.50293258558E+02  0.58596191533E+02  0.00000000000E+00 0.  1.
</event>
<event>
 6    1  0.4069520E-005  0.1800206E+03  0.7818608E-02  0.1204724E+00
          2   -1    0    0  502    0  0.00000000000E+00  0.00000000000E+00  0.61019816452E+02  0.61019816452E+02  0.00000000000E+00 0. -1.
          1   -1    0    0  501    0 -0.00000000000E+00 -0.00000000000E+00 -0.19051843708E+04  0.19051843708E+04  0.00000000000E+00 0. -1.
          2    1    1    2  501    0 -0.81864047295E+02  0.71173116355E+02 -0.90155877451E+02  0.14105111474E+03  0.00000000000E+00 0. -1.
          1    1    1    2  502    0  0.26411923015E+02 -0.16876763778E+03 -0.15638142175E+04  0.15731163378E+04  0.00000000000E+00 0. -1.
         22    1    1    2    0    0  0.67818337263E+02  0.40817095076E+02 -0.17485672195E+03  0.19193810286E+03  0.00000000000E+00 0. -1.
         22    1    1    2    0    0 -0.12366212983E+02  0.56777426351E+02 -0.15337737456E+02  0.60098631905E+02  0.00000000000E+00 0. -1.
</event>
<event>
 6    1  0.4069520E-005  0.8978992E+02  0.7818608E-02  0.1307964E+00
          2   -1    0    0  502    0  0.00000000000E+00  0.00000000000E+00  0.60940828135E+03  0.60940828135E+03  0.00000000000E+00 0.  1.
          1   -1    0    0  501    0 -0.00000000000E+00 -0.00000000000E+00 -0.67014929364E+02  0.67014929364E+02  0.00000000000E+00 0.  1.
          2    1    1    2  501    0  0.45904143834E+02 -0.25683952443E+02  0.17606984486E+03  0.18375920686E+03  0.00000000000E+00 0.  1.
          1    1    1    2  502    0 -0.17402199244E+02 -0.15733757342E+02 -0.50666303149E+02  0.55834236212E+02  0.00000000000E+00 0.  1.
         22    1    1    2    0    0  0.26100960296E+02 -0.20111170761E+02  0.44540209484E+02  0.55403515940E+02  0.00000000000E+00 0.  1.
         22    1    1    2    0    0 -0.54602904886E+02  0.61528880546E+02  0.37244960079E+03  0.38142625171E+03  0.00000000000E+00 0.  1.
</event>
<event>
 6    1  0.4069520E-005  0.8629169E+02  0.7818608E-02  0.1317952E+00
          2   -1    0    0  502    0  0.00000000000E+00  0.00000000000E+00  0.29391672780E+03  0.29391672780E+03  0.00000000000E+00 0.  1.
          1   -1    0    0  501    0 -0.00000000000E+00 -0.00000000000E+00 -0.13268056480E+03  0.13268056480E+03  0.00000000000E+00 0.  1.
          2    1    1    2  501    0  0.20324046719E+02 -0.41058072604E+02 -0.47284409462E+02  0.65838040517E+02  0.00000000000E+00 0.  1.
          1    1    1    2  502    0  0.23085772907E+02  0.82829714600E+02 -0.23461758679E+02  0.89130065925E+02  0.00000000000E+00 0.  1.
         22    1    1    2    0    0  0.29081611290E+02 -0.13952569451E+02  0.61699167412E+01  0.32840252467E+02  0.00000000000E+00 0. -1.
         22    1    1    2    0    0 -0.72491430916E+02 -0.27819072546E+02  0.22581241440E+03  0.23878893369E+03  0.00000000000E+00 0.  1.
</event>
<event>
 6    1  0.4069520E-005  0.1798115E+03  0.7818608E-02  0.1216105E+00
          2   -1    0    0  502    0  0.00000000000E+00  0.00000000000E+00  0.30181464091E+03  0.30181464091E+03  0.00000000000E+00 0.  1.
          1   -1    0    0  501    0 -0.00000000000E+00 -0.00000000000E+00 -0.77413324058E+03  0.77413324058E+03  0.00000000000E+00 0.  1.
          2    1    1    2  501    0  0.53120912600E+02 -0.60235995380E+02 -0.16457082091E+02  0.81981961710E+02  0.00000000000E+00 0.  1.
          1    1    1    2  502    0 -0.55125064706E+02  0.61436509410E+02 -0.70769388764E+03  0.71249130244E+03  0.00000000000E+00 0.  1.
         22    1    1    2    0    0 -0.42203020225E+02 -0.45834327833E+02  0.13920290767E+03  0.15251009811E+03  0.00000000000E+00 0.  1.
         22    1    1    2    0    0  0.44207172330E+02  0.44633813803E+02  0.11262946239E+03  0.12896451923E+03  0.00000000000E+00 0.  1.
</event>
<event>
 6    1  0.4069520E-005  0.2416494E+03  0.7818608E-02  0.1166971E+00
          2   -1    0    0  502    0  0.00000000000E+00  0.00000000000E+00  0.44170845146E+03  0.44170845146E+03  0.00000000000E+00 0. -1.
          1   -1    0    0  501    0 -0.00000000000E+00 -0.00000000000E+00 -0.40509047444E+03  0.40509047444E+03  0.00000000000E+00 0. -1.
          2    1    1    2  501    0  0.46737492077E+02  0.11810563285E+03  0.47859736743E+02  0.13573462373E+03  0.00000000000E+00 0. -1.
          1    1    1    2  502    0 -0.89974940471E+02 -0.18153138255E+03 -0.31461441609E+03  0.37420764767E+03  0.00000000000E+00 0. -1.
         22    1    1    2    0    0 -0.32586649581E+02  0.62590458908E+02  0.14910756530E+03  0.16496218144E+03  0.00000000000E+00 0. -1.
         22    1    1    2    0    0  0.75824097975E+02  0.83529078742E+00  0.15426509108E+03  0.17189447306E+03  0.00000000000E+00 0. -1.
</event>
<event>
 6    1  0.4069520E-005  0.5914746E+02  0.7818608E-02  0.1506464E+00
          2   -1    0    0  502    0  0.00000000000E+00  0.00000000000E+00  0.30022588377E+02  0.30022588377E+02  0.00000000000E+00 0. -1.
          1   -1    0    0  501    0 -0.00000000000E+00 -0.00000000000E+00 -0.44883908896E+03  0.44883908896E+03  0.00000000000E+00 0. -1.
          2    1    1    2  501    0  0.21605522161E+02  0.10223110512E+02 -0.14257729222E+03  0.14456692164E+03  0.00000000000E+00 0. -1.
          1    1    1    2  502    0 -0.26142056470E+02 -0.46748615492E+02 -0.11895671546E+03  0.13045896029E+03  0.00000000000E+00 0. -1.
         22    1    1    2    0    0  0.16512727676E+02  0.32391921629E+02 -0.17683685911E+03  0.18053581779E+03  0.00000000000E+00 0. -1.
         22    1    1    2    0    0 -0.11976193367E+02  0.41335833517E+01  0.19554366214E+02  0.23299977616E+02  0.00000000000E+00 0. -1.
</event>
<event>
 6    1  0.4069520E-005  0.2772010E+03  0.7818608E-02  0.1177042E+00
          2   -1    0    0  502    0  0.00000000000E+00  0.00000000000E+00  0.24536717480E+03  0.24536717480E+03  0.00000000000E+00 0. -1.
          1   -1    0    0  501    0 -0.00000000000E+00 -0.00000000000E+00 -0.81742993603E+03  0.81742993603E+03  0.00000000000E+00 0.  1.
          2    1    1    2  501    0 -0.17321831786E+03 -0.17281243044E+02 -0.85977850786E+02  0.19415307834E+03  0.00000000000E+00 0. -1.
          1    1    1    2  502    0  0.24192570008E+03  0.20719398232E+02 -0.62417954362E+03  0.66974430980E+03  0.00000000000E+00 0.  1.
         22    1    1    2    0    0 -0.75182357761E+02  0.35964221538E+02  0.38906592571E+02  0.91975731010E+02  0.00000000000E+00 0. -1.
         22    1    1    2    0    0  0.64749755362E+01 -0.39402376725E+02  0.99188040607E+02  0.10692399169E+03  0.00000000000E+00 0. -1.
</event>
<event>
 6    1  0.4069520E-005  0.2038199E+03  0.7818608E-02  0.1233350E+00
          2   -1    0    0  502    0  0.00000000000E+00  0.00000000000E+00  0.33131033111E+02  0.33131033111E+02  0.00000000000E+00 0. -1.
          1   -1    0    0  501    0 -0.00000000000E+00 -0.00000000000E+00 -0.19329441708E+04  0.19329441708E+04  0.00000000000E+00 0. -1.
          2    1    1    2  501    0 -0.79469991347E+02 -0.53999233584E+02 -0.46626536051E+03  0.47606174301E+03  0.00000000000E+00 0. -1.
          1    1    1    2  502    0  0.73122867537E+02  0.13728457007E+03 -0.12194181223E+04  0.12292984031E+04  0.00000000000E+00 0. -1.
         22    1    1    2    0    0 -0.13702474338E+02 -0.10542441097E+03 -0.20240844745E+03  0.22862905291E+03  0.00000000000E+00 0. -1.
         22    1    1    2    0    0  0.20049598148E+02  0.22139074492E+02 -0.11721207444E+02  0.32086004880E+02  0.00000000000E+00 0.  1.
</event>
<event>
 6    1  0.4069520E-005  0.1708968E+03  0.7818608E-02  0.1296835E+00
          2   -1    0    0  502    0  0.00000000000E+00  0.00000000000E+00  0.14973108023E+03  0.14973108023E+03  0.00000000000E+00 0. -1.
          1   -1    0    0  501    0 -0.00000000000E+00 -0.00000000000E+00 -0.20492552076E+03  0.20492552076E+03  0.00000000000E+00 0. -1.
          2    1    1    2  501    0  0.18141550682E+02  0.39174765656E+02 -0.68301931632E+02  0.80801806849E+02  0.00000000000E+00 0. -1.
          1    1    1    2  502    0  0.32048182235E+02  0.62875620979E+02 -0.56620609085E+02  0.90478301660E+02  0.00000000000E+00 0. -1.
         22    1    1    2    0    0 -0.13788594209E+02 -0.50596093210E+01  0.78074691801E+02  0.79444209836E+02  0.00000000000E+00 0.  1.
         22    1    1    2    0    0 -0.36401138708E+02 -0.96990777314E+02 -0.83465916181E+01  0.10393228264E+03  0.00000000000E+00 0. -1.
</event>
<event>
 6    1  0.4069520E-005  0.8536546E+02  0.7818608E-02  0.1318217E+00
          2   -1    0    0  502    0  0.00000000000E+00  0.00000000000E+00  0.69519486971E+03  0.69519486971E+03  0.00000000000E+00 0. -1.
          1   -1    0    0  501    0 -0.00000000000E+00 -0.00000000000E+00 -0.52213615722E+02  0.52213615722E+02  0.00000000000E+00 0. -1.
          2    1    1    2  501    0 -0.22978747526E+01 -0.33888550247E+02  0.24757169926E+03  0.24989089687E+03  0.00000000000E+00 0. -1.
          1    1    1    2  502    0  0.61818621965E+02  0.30099102302E+02 -0.96168925510E+01  0.69426094543E+02  0.00000000000E+00 0. -1.
         22    1    1    2    0    0 -0.16767399566E+02 -0.57581840771E+02  0.23129018021E+03  0.23893924236E+03  0.00000000000E+00 0. -1.
         22    1    1    2    0    0 -0.42753347647E+02  0.61371288715E+02  0.17373626707E+03  0.18915225167E+03  0.00000000000E+00 0. -1.
</event>
<event>
 6    1  0.4069520E-005  0.1350317E+03  0.7818608E-02  0.1266899E+00
          2   -1    0    0  502    0  0.00000000000E+00  0.00000000000E+00  0.12360767173E+03  0.12360767173E+03  0.00000000000E+00 0. -1.
          1   -1    0    0  501    0 -0.00000000000E+00 -0.00000000000E+00 -0.31638416525E+03  0.31638416525E+03  0.00000000000E+00 0. -1.
          2    1    1    2  501    0  0.14243707116E+02 -0.65071921985E+02 -0.88412662893E+02  0.11069795474E+03  0.00000000000E+00 0. -1.
          1    1    1    2  502    0  0.10253563649E+02  0.93384565315E+02 -0.15939205253E+03  0.18501794242E+03  0.00000000000E+00 0. -1.
         22    1    1    2    0    0 -0.28569401712E+02  0.44104696173E+02  0.48399530436E+02  0.71441930861E+02  0.00000000000E+00 0. -1.
         22    1    1    2    0    0  0.40721309467E+01 -0.72417339503E+02  0.66286914765E+01  0.72834008965E+02  0.00000000000E+00 0. -1.
</event>
<event>
 6    1  0.4069520E-005  0.1017807E+03  0.7818608E-02  0.1377743E+00
          2   -1    0    0  502    0  0.00000000000E+00  0.00000000000E+00  0.87399760713E+02  0.87399760713E+02  0.00000000000E+00 0. -1.
          1   -1    0    0  501    0 -0.00000000000E+00 -0.00000000000E+00 -0.11590297164E+04  0.11590297164E+04  0.00000000000E+00 0. -1.
          2    1    1    2  501    0  0.63874718698E+02  0.28090223991E+02 -0.66538788501E+03  0.66903667903E+03  0.00000000000E+00 0. -1.
          1    1    1    2  502    0 -0.68248896757E+02 -0.14258659551E+02 -0.44147791458E+03  0.44694962842E+03  0.00000000000E+00 0. -1.
         22    1    1    2    0    0 -0.15536175860E+02 -0.68850239461E+01  0.79562062489E+02  0.81356610688E+02  0.00000000000E+00 0. -1.
         22    1    1    2    0    0  0.19910353919E+02 -0.69465404935E+01 -0.44326218595E+02  0.49086558985E+02  0.00000000000E+00 0. -1.
</event>
<event>
 6    1  0.4069520E-005  0.8321962E+02  0.7818608E-02  0.1369905E+00
          2   -1    0    0  502    0  0.00000000000E+00  0.00000000000E+00  0.18648665709E+03  0.18648665709E+03  0.00000000000E+00 0.  1.
          1   -1    0    0  501    0 -0.00000000000E+00 -0.00000000000E+00 -0.16663578878E+03  0.16663578878E+03  0.00000000000E+00 0.  1.
          2    1    1    2  501    0 -0.25252019372E+02  0.12517891179E+02 -0.11322143263E+03  0.11667671100E+03  0.00000000000E+00 0.  1.
          1    1    1    2  502    0  0.12730511349E+01  0.44445476246E+02  0.19911896503E+01  0.44508267256E+02  0.00000000000E+00 0.  1.
         22    1    1    2    0    0 -0.31335389712E+01 -0.34248679890E+02 -0.17930734026E+02  0.38785336963E+02  0.00000000000E+00 0. -1.
         22    1    1    2    0    0  0.27112507208E+02 -0.22714687535E+02  0.14901184532E+03  0.15315213065E+03  0.00000000000E+00 0.  1.
</event>
<event>
 6    1  0.4069520E-005  0.9174036E+02  0.7818608E-02  0.1306466E+00
          2   -1    0    0  502    0  0.00000000000E+00  0.00000000000E+00  0.11224110064E+03  0.11224110064E+03  0.00000000000E+00 0. -1.
          1   -1    0    0  501    0 -0.00000000000E+00 -0.00000000000E+00 -0.18415933839E+04  0.18415933839E+04  0.00000000000E+00 0.  1.
          2    1    1    2  501    0 -0.96168441416E+01 -0.27276770487E+02 -0.18074889551E+02  0.34105828413E+02  0.00000000000E+00 0. -1.
          1    1    1    2  502    0  0.19021702844E+02 -0.17833863949E+02 -0.17732092490E+04  0.17734009453E+04  0.00000000000E+00 0.  1.
         22    1    1    2    0    0  0.26405392802E+02  0.78972042987E+02  0.37636666100E+02  0.91380232970E+02  0.00000000000E+00 0. -1.
         22    1    1    2    0    0 -0.35810251505E+02 -0.33861408551E+02  0.24295189244E+02  0.54947477852E+02  0.00000000000E+00 0.  1.
</event>
<event>
 6    1  0.4069520E-005  0.8560915E+02  0.7818608E-02  0.1336147E+00
          2   -1    0    0  502    0  0.00000000000E+00  0.00000000000E+00  0.35041015558E+03  0.35041015558E+03  0.00000000000E+00 0.  1.
          1   -1    0    0  501    0 -0.00000000000E+00 -0.00000000000E+00 -0.40809638853E+02  0.40809638853E+02  0.00000000000E+00 0.  1.
          2    1    1    2  501    0  0.27422409470E+02 -0.23093143953E+02  0.74274873488E+02  0.82474472841E+02  0.00000000000E+00 0.  1.
          1    1    1    2  502    0 -0.64097531303E+02  0.26047487681E+02  0.99486690986E+02  0.12117989444E+03  0.00000000000E+00 0.  1.
         22    1    1    2    0    0 -0.63836089166E+00  0.57646437482E+02  0.52479304179E+02  0.77958941926E+02  0.00000000000E+00 0.  1.
         22    1    1    2    0    0  0.37313482724E+02 -0.60600781210E+02  0.83359648078E+02  0.10960648523E+03  0.00000000000E+00 0.  1.
</event>
<event>
 6    1  0.4069520E-005  0.1489673E+03  0.7818608E-02  0.1249081E+00
          2   -1    0    0  502    0  0.00000000000E+00  0.00000000000E+00  0.74912098878E+03  0.74912098878E+03  0.00000000000E+00 0. -1.
          1   -1    0    0  501    0 -0.00000000000E+00 -0.00000000000E+00 -0.91748826045E+02  0.91748826045E+02  0.00000000000E+00 0. -1.
          2    1    1    2  501    0  0.39469923428E+02 -0.78234751448E+02  0.14777482535E+03  0.17180206692E+03  0.00000000000E+00 0. -1.
          1    1    1    2  502    0  0.88590161934E+01  0.68583086797E+02 -0.55622782095E+02  0.88746920231E+02  0.00000000000E+00 0. -1.
         22    1    1    2    0    0 -0.61278331650E+02 -0.44435897009E+02  0.34201745269E+03  0.35029347812E+03  0.00000000000E+00 0. -1.
         22    1    1    2    0    0  0.12949392029E+02  0.54087561660E+02  0.22320266678E+03  0.23002734955E+03  0.00000000000E+00 0. -1.
</event>
<event>
 6    1  0.4069520E-005  0.1284862E+03  0.7818608E-02  0.1303851E+00
          2   -1    0    0  502    0  0.00000000000E+00  0.00000000000E+00  0.10849478403E+03  0.10849478403E+03  0.00000000000E+00 0. -1.
          1   -1    0    0  501    0 -0.00000000000E+00 -0.00000000000E+00 -0.19796928429E+03  0.19796928429E+03  0.00000000000E+00 0. -1.
          2    1    1    2  501    0 -0.37011057567E+02 -0.64410361386E+01 -0.43972637073E+02  0.57835094363E+02  0.00000000000E+00 0. -1.
          1    1    1    2  502    0 -0.28758071642E+01 -0.78457340270E+02  0.15385148723E+02  0.80003295622E+02  0.00000000000E+00 0. -1.
         22    1    1    2    0    0  0.10831016135E+02  0.93733781746E+02 -0.87171764060E+02  0.12846108049E+03  0.00000000000E+00 0. -1.
         22    1    1    2    0    0  0.29055848596E+02 -0.88354053378E+01  0.26284752148E+02  0.40164597852E+02  0.00000000000E+00 0. -1.
</event>
<event>
 6    1  0.4069520E-005  0.1603323E+03  0.7818608E-02  0.1193735E+00
          2   -1    0    0  502    0  0.00000000000E+00  0.00000000000E+00  0.11229498028E+03  0.11229498028E+03  0.00000000000E+00 0. -1.
          1   -1    0    0  501    0 -0.00000000000E+00 -0.00000000000E+00 -0.33595073719E+03  0.33595073719E+03  0.00000000000E+00 0.  1.
          2    1    1    2  501    0  0.12760838076E+03  0.16529900791E+02 -0.43790523013E+02  0.13592183918E+03  0.00000000000E+00 0. -1.
          1    1    1    2  502    0  0.69733009685E+00 -0.23190990380E+02 -0.11969841945E+03  0.12192628889E+03  0.00000000000E+00 0.  1.
         22    1    1    2    0    0  0.12589417022E+02  0.19617258434E+02 -0.41613046834E+02  0.47696707603E+02  0.00000000000E+00 0. -1.
         22    1    1    2    0    0 -0.14089512788E+03 -0.12956168844E+02 -0.18553767612E+02  0.14270088179E+03  0.00000000000E+00 0.  1.
</event>
<event>
 6    1  0.4069520E-005  0.8811361E+02  0.7818608E-02  0.1310998E+00
          2   -1    0    0  502    0  0.00000000000E+00  0.00000000000E+00  0.49960035064E+02  0.49960035064E+02  0.00000000000E+00 0. -1.
          1   -1    0    0  501    0 -0.00000000000E+00 -0.00000000000E+00 -0.57459645619E+03  0.57459645619E+03  0.00000000000E+00 0.  1.
          2    1    1    2  501    0  0.27011541112E+02 -0.25221693097E+02 -0.35679168754E+02  0.51368864490E+02  0.00000000000E+00 0. -1.
          1    1    1    2  502    0 -0.48994440726E+02 -0.73236280171E+02 -0.34178824981E+03  0.35296347638E+03  0.00000000000E+00 0.  1.
         22    1    1    2    0    0  0.30275499221E+02 -0.22927972355E+02 -0.15700888921E+02  0.41095202668E+02  0.00000000000E+00 0. -1.
         22    1    1    2    0    0 -0.82925996072E+01  0.12138594562E+03 -0.13146811364E+03  0.17912894771E+03  0.00000000000E+00 0. -1.
</event>
<event>
 6    1  0.4069520E-005  0.2505713E+03  0.7818608E-02  0.1235294E+00
          2   -1    0    0  502    0  0.00000000000E+00  0.00000000000E+00  0.18207452834E+03  0.18207452834E+03  0.00000000000E+00 0.  1.
          1   -1    0    0  501    0 -0.00000000000E+00 -0.00000000000E+00 -0.22975466503E+04  0.22975466503E+04  0.00000000000E+00 0. -1.
          2    1    1    2  501    0 -0.99298371963E+02  0.11163822707E+03  0.15678343950E+01  0.14941793240E+03  0.00000000000E+00 0.  1.
          1    1    1    2  502    0  0.97251812583E+02 -0.26818374186E+02 -0.21688532111E+04  0.21711981465E+04  0.00000000000E+00 0. -1.
         22    1    1    2    0    0  0.90166999304E+00  0.15420936076E+02  0.56573797387E+02  0.58644802234E+02  0.00000000000E+00 0. -1.
         22    1    1    2    0    0  0.11448893872E+01 -0.10024078896E+03 -0.47605426648E+01  0.10036029748E+03  0.00000000000E+00 0.  1.
</event>
<event>
 6    1  0.4069520E-005  0.7126693E+03  0.7818608E-02  0.1079136E+00
          2   -1    0    0  502    0  0.00000000000E+00  0.00000000000E+00  0.30286026125E+03  0.30286026125E+03  0.00000000000E+00 0.  1.
          1   -1    0    0  501    0 -0.00000000000E+00 -0.00000000000E+00 -0.73552387518E+03  0.73552387518E+03  0.00000000000E+00 0.  1.
          2    1    1    2  501    0  0.31517238920E+02 -0.15844752786E+03 -0.55769904953E+03  0.58062654545E+03  0.00000000000E+00 0.  1.
          1    1    1    2  502    0  0.20568898861E+02 -0.22845951849E+02 -0.11959431819E+03  0.12348205561E+03  0.00000000000E+00 0.  1.
         22    1    1    2    0    0 -0.74733138511E+02  0.16780471695E+03  0.15342519373E+03  0.23933816055E+03  0.00000000000E+00 0.  1.
         22    1    1    2    0    0  0.22647000730E+02  0.13488762758E+02  0.91204560058E+02  0.94937374823E+02  0.00000000000E+00 0.  1.
</event>
<event>
 6    1  0.4069520E-005  0.6386687E+03  0.7818608E-02  0.1090636E+00
          2   -1    0    0  502    0  0.00000000000E+00  0.00000000000E+00  0.68310396120E+03  0.68310396120E+03  0.00000000000E+00 0. -1.
          1   -1    0    0  501    0 -0.00000000000E+00 -0.00000000000E+00 -0.60293421152E+03  0.60293421152E+03  0.00000000000E+00 0. -1.
          2    1    1    2  501    0 -0.82995770908E+02 -0.84761009956E+02 -0.13250587534E+03  0.17784975062E+03  0.00000000000E+00 0. -1.
          1    1    1    2  502    0  0.30551516049E+02  0.39136099279E+00 -0.43793088741E+03  0.43899545607E+03  0.00000000000E+00 0. -1.
         22    1    1    2    0    0  0.15221893687E+02 -0.22233257864E+02  0.39966482426E+02  0.48201073849E+02  0.00000000000E+00 0. -1.
         22    1    1    2    0    0  0.37222361173E+02  0.10660290683E+03  0.61064003000E+03  0.62099189218E+03  0.00000000000E+00 0. -1.
</event>
<event>
 6    1  0.4069520E-005  0.7827815E+03  0.7818608E-02  0.1104523E+00
          2   -1    0    0  502    0  0.00000000000E+00  0.00000000000E+00  0.24916557646E+03  0.24916557646E+03  0.00000000000E+00 0. -1.
          1   -1    0    0  501    0 -0.00000000000E+00 -0.00000000000E+00 -0.96754762412E+03  0.96754762412E+03  0.00000000000E+00 0. -1.
          2    1    1    2  501    0 -0.80665591767E+02  0.21724198397E+03 -0.74410663295E+03  0.77935595109E+03  0.00000000000E+00 0. -1.
          1    1    1    2  502    0 -0.57114178423E+02 -0.62020361860E+02 -0.12625814302E+03  0.15182118871E+03  0.00000000000E+00 0. -1.
         22    1    1    2    0    0  0.14712413014E+03 -0.15115659358E+03  0.10159241826E+03  0.23412570320E+03  0.00000000000E+00 0. -1.
         22    1    1    2    0    0 -0.93443599460E+01 -0.40650285366E+01  0.50390310056E+02  0.51410357588E+02  0.00000000000E+00 0.  1.
</event>
<event>
 6    1  0.4069520E-005  0.8240395E+02  0.7818608E-02  0.1336732E+00
          2   -1    0    0  502    0  0.00000000000E+00  0.00000000000E+00  0.18430240241E+02  0.18430240241E+02  0.00000000000E+00 0.  1.
          1   -1    0    0  501    0 -0.00000000000E+00 -0.00000000000E+00 -0.74514485967E+03  0.74514485967E+03  0.00000000000E+00 0.  1.
          2    1    1    2  501    0 -0.45884280682E+02  0.79115634280E+01 -0.35553609728E+03  0.35857199628E+03  0.00000000000E+00 0.  1.
          1    1    1    2  502    0  0.29087118470E+02  0.80275272742E+01 -0.55451377700E+02  0.63129683540E+02  0.00000000000E+00 0.  1.
         22    1    1    2    0    0  0.25818893456E+02 -0.57766331358E+02 -0.78536407414E+02  0.10085401126E+03  0.00000000000E+00 0.  1.
         22    1    1    2    0    0 -0.90217312447E+01  0.41827240656E+02 -0.23719073703E+03  0.24101940882E+03  0.00000000000E+00 0.  1.
</event>
<event>
 6    1  0.4069520E-005  0.1193014E+03  0.7818608E-02  0.1273993E+00
          2   -1    0    0  502    0  0.00000000000E+00  0.00000000000E+00  0.11460795053E+03  0.11460795053E+03  0.00000000000E+00 0.  1.
          1   -1    0    0  501    0 -0.00000000000E+00 -0.00000000000E+00 -0.18658242112E+03  0.18658242112E+03  0.00000000000E+00 0.  1.
          2    1    1    2  501    0  0.76722053056E+02 -0.61702872095E+01 -0.41512414899E+02  0.87450708746E+02  0.00000000000E+00 0.  1.
          1    1    1    2  502    0 -0.47595835408E+02  0.48955751203E+02 -0.33428524913E+02  0.76022992587E+02  0.00000000000E+00 0.  1.
         22    1    1    2    0    0 -0.65372625654E+02  0.11829057095E+02 -0.18118881360E+02  0.68860733646E+02  0.00000000000E+00 0.  1.
         22    1    1    2    0    0  0.36246408005E+02 -0.54614521088E+02  0.21085350582E+02  0.68855936680E+02  0.00000000000E+00 0. -1.
</event>
<event>
 6    1  0.4069520E-005  0.9341303E+02  0.7818608E-02  0.1301354E+00
          2   -1    0    0  502    0  0.00000000000E+00  0.00000000000E+00  0.29932174970E+03  0.29932174970E+03  0.00000000000E+00 0.  1.
          1   -1    0    0  501    0 -0.00000000000E+00 -0.00000000000E+00 -0.11690089637E+03  0.11690089637E+03  0.00000000000E+00 0.  1.
          2    1    1    2  501    0  0.33554320720E+02 -0.28554722146E+02 -0.57874711881E+02  0.72737520381E+02  0.00000000000E+00 0.  1.
          1    1    1    2  502    0 -0.84782335289E+02  0.59068761029E+01  0.16260757608E+03  0.18347795333E+03  0.00000000000E+00 0.  1.
         22    1    1    2    0    0  0.25378361388E+00 -0.42520888375E+02 -0.52656231958E+01  0.42846436748E+02  0.00000000000E+00 0.  1.
         22    1    1    2    0    0  0.50974230956E+02  0.65168734419E+02  0.82953612331E+02  0.11716073560E+03  0.00000000000E+00 0.  1.
</event>
<event>
 6    1  0.4069520E-005  0.1178574E+03  0.7818608E-02  0.1267444E+00
          2   -1    0    0  502    0  0.00000000000E+00  0.00000000000E+00  0.82218743466E+02  0.82218743466E+02  0.00000000000E+00 0. -1.
          1   -1    0    0  501    0 -0.00000000000E+00 -0.00000000000E+00 -0.82375007991E+03  0.82375007991E+03  0.00000000000E+00 0.  1.
          2    1    1    2  501    0  0.43629463686E+02 -0.31091347432E+02 -0.75471861341E+02  0.92553788906E+02  0.00000000000E+00 0. -1.
          1    1    1    2  502    0 -0.16897164437E+02 -0.14759702419E+02 -0.67937718493E+03  0.67974754312E+03  0.00000000000E+00 0.  1.
         22    1    1    2    0    0  0.44472206844E+01  0.81279681458E+02  0.24801318953E+02  0.85095650955E+02  0.00000000000E+00 0. -1.
         22    1    1    2    0    0 -0.31179519933E+02 -0.35428631607E+02 -0.11483609132E+02  0.48571840396E+02  0.00000000000E+00 0.  1.
</event>
<event>
 6    1  0.4069520E-005  0.1773402E+03  0.7818608E-02  0.1307226E+00
          2   -1    0    0  502    0  0.00000000000E+00  0.00000000000E+00  0.14915934789E+03  0.14915934789E+03  0.00000000000E+00 0.  1.
          1   -1    0    0  501    0 -0.00000000000E+00 -0.00000000000E+00 -0.25836940002E+03  0.25836940002E+03  0.00000000000E+00 0. -1.
          2    1    1    2  501    0 -0.17667367210E+01 -0.72224175420E+02  0.14860715885E+02  0.73758346987E+02  0.00000000000E+00 0.  1.
          1    1    1    2  502    0  0.12384006316E+01 -0.23780366609E+02 -0.16964311572E+03  0.17130623510E+03  0.00000000000E+00 0. -1.
         22    1    1    2    0    0  0.77293140761E+01  0.10413292863E+03 -0.10872778565E+02  0.10498393417E+03  0.00000000000E+00 0.  1.
         22    1    1    2    0    0 -0.72009779867E+01 -0.81283865989E+01  0.56445126263E+02  0.57480231658E+02  0.00000000000E+00 0.  1.
</event>
<event>
 6    1  0.4069520E-005  0.5219570E+03  0.7818608E-02  0.1100076E+00
          2   -1    0    0  502    0  0.00000000000E+00  0.00000000000E+00  0.60675015188E+03  0.60675015188E+03  0.00000000000E+00 0.  1.
          1   -1    0    0  501    0 -0.00000000000E+00 -0.00000000000E+00 -0.16030078929E+04  0.16030078929E+04  0.00000000000E+00 0.  1.
          2    1    1    2  501    0  0.48352052357E+02  0.24622513858E+03 -0.49918304258E+01  0.25097740577E+03  0.00000000000E+00 0.  1.
          1    1    1    2  502    0 -0.33121239556E+02 -0.40362035709E+02 -0.14443826597E+04  0.14453260455E+04  0.00000000000E+00 0.  1.
         22    1    1    2    0    0  0.19219306059E+02 -0.18854837582E+03  0.29446536405E+03  0.35018526864E+03  0.00000000000E+00 0.  1.
         22    1    1    2    0    0 -0.34450118860E+02 -0.17314727048E+02  0.15865138501E+03  0.16326932482E+03  0.00000000000E+00 0.  1.
</event>
<event>
 6    1  0.4069520E-005  0.1025176E+03  0.7818608E-02  0.1304091E+00
          2   -1    0    0  502    0  0.00000000000E+00  0.00000000000E+00  0.23708195304E+03  0.23708195304E+03  0.00000000000E+00 0.  1.
          1   -1    0    0  501    0 -0.00000000000E+00 -0.00000000000E+00 -0.63355892327E+03  0.63355892327E+03  0.00000000000E+00 0.  1.
          2    1    1    2  501    0  0.36245709101E+02 -0.16996298235E+01  0.11414296115E+02  0.38038484796E+02  0.00000000000E+00 0.  1.
          1    1    1    2  502    0 -0.35971427239E+02  0.28150353920E+02 -0.60124285592E+03  0.60297542056E+03  0.00000000000E+00 0.  1.
         22    1    1    2    0    0 -0.11726626279E+02 -0.65512688782E+02  0.57978688090E+02  0.88266383340E+02  0.00000000000E+00 0.  1.
         22    1    1    2    0    0  0.11452344417E+02  0.39061964685E+02  0.13537290148E+03  0.14136058762E+03  0.00000000000E+00 0.  1.
</event>
<event>
 6    1  0.4069520E-005  0.1368747E+03  0.7818608E-02  0.1219385E+00
          2   -1    0    0  502    0  0.00000000000E+00  0.00000000000E+00  0.17930491040E+03  0.17930491040E+03  0.00000000000E+00 0.  1.
          1   -1    0    0  501    0 -0.00000000000E+00 -0.00000000000E+00 -0.23751124678E+03  0.23751124678E+03  0.00000000000E+00 0.  1.
          2    1    1    2  501    0  0.29875002249E+02  0.13228078268E+03  0.45893847973E+01  0.13569002793E+03  0.00000000000E+00 0.  1.
          1    1    1    2  502    0  0.36032790478E+02 -0.82751384281E+02 -0.88673253553E+02  0.12652707017E+03  0.00000000000E+00 0.  1.
         22    1    1    2    0    0 -0.37307599941E+01  0.40838731572E+02  0.17502324471E+02  0.44587575943E+02  0.00000000000E+00 0.  1.
         22    1    1    2    0    0 -0.62177032733E+02 -0.90368129974E+02  0.83752079096E+01  0.11001148314E+03  0.00000000000E+00 0.  1.
</event>
<event>
 6    1  0.4069520E-005  0.2270902E+03  0.7818608E-02  0.1206897E+00
          2   -1    0    0  502    0  0.00000000000E+00  0.00000000000E+00  0.32250440830E+03  0.32250440830E+03  0.00000000000E+00 0. -1.
          1   -1    0    0  501    0 -0.00000000000E+00 -0.00000000000E+00 -0.49288629365E+03  0.49288629365E+03  0.00000000000E+00 0. -1.
          2    1    1    2  501    0 -0.26019268043E+02 -0.72430866571E+02  0.15073303828E+03  0.16924444325E+03  0.00000000000E+00 0. -1.
          1    1    1    2  502    0  0.13275344300E+03  0.11531940370E+03 -0.41436087344E+03  0.45012995338E+03  0.00000000000E+00 0. -1.
         22    1    1    2    0    0 -0.13374566828E+03 -0.16686360406E+02  0.72480738826E+02  0.15303527668E+03  0.00000000000E+00 0.  1.
         22    1    1    2    0    0  0.27011493324E+02 -0.26202176721E+02  0.20765210973E+02  0.42981028644E+02  0.00000000000E+00 0.  1.
</event>
<event>
 6    1  0.4069520E-005  0.1808727E+03  0.7818608E-02  0.1298990E+00
          2   -1    0    0  502    0  0.00000000000E+00  0.00000000000E+00  0.19792527944E+03  0.19792527944E+03  0.00000000000E+00 0.  1.
          1   -1    0    0  501    0 -0.00000000000E+00 -0.00000000000E+00 -0.20622746593E+03  0.20622746593E+03  0.00000000000E+00 0.  1.
          2    1    1    2  501    0 -0.25621913362E+02  0.93236595720E+01 -0.49261333337E+01  0.27707036323E+02  0.00000000000E+00 0.  1.
          1    1    1    2  502    0  0.30486409076E+02 -0.16965661592E+03 -0.11078290396E+02  0.17272960655E+03  0.00000000000E+00 0.  1.
         22    1    1    2    0    0 -0.35313477859E+01  0.14850287342E+03 -0.40579834116E+02  0.15398797605E+03  0.00000000000E+00 0.  1.
         22    1    1    2    0    0 -0.13331479280E+01  0.11830082922E+02  0.48282071358E+02  0.49728126448E+02  0.00000000000E+00 0.  1.
</event>
<event>
 6    1  0.4069520E-005  0.2081454E+03  0.7818608E-02  0.1240951E+00
          2   -1    0    0  502    0  0.00000000000E+00  0.00000000000E+00  0.44959326395E+03  0.44959326395E+03  0.00000000000E+00 0. -1.
          1   -1    0    0  501    0 -0.00000000000E+00 -0.00000000000E+00 -0.20781422471E+04  0.20781422471E+04  0.00000000000E+00 0. -1.
          2    1    1    2  501    0 -0.93254880971E+02  0.70435619640E+02  0.14859897837E+03  0.18904842161E+03  0.00000000000E+00 0. -1.
          1    1    1    2  502    0  0.18048826328E+03 -0.86360819612E+02 -0.20325831703E+04  0.20424075373E+04  0.00000000000E+00 0. -1.
         22    1    1    2    0    0  0.23990474199E+02 -0.10913075450E+01  0.10896618653E+03  0.11158119739E+03  0.00000000000E+00 0. -1.
         22    1    1    2    0    0 -0.11122385651E+03  0.17016507517E+02  0.14646902222E+03  0.18469835477E+03  0.00000000000E+00 0. -1.
</event>
<event>
 6    1  0.4069520E-005  0.1399025E+03  0.7818608E-02  0.1221651E+00
          2   -1    0    0  502    0  0.00000000000E+00  0.00000000000E+00  0.45421104148E+03  0.45421104148E+03  0.00000000000E+00 0.  1.
          1   -1    0    0  501    0 -0.00000000000E+00 -0.00000000000E+00 -0.87492554303E+02  0.87492554303E+02  0.00000000000E+00 0.  1.
          2    1    1    2  501    0 -0.87554252734E+02  0.68451790969E+02  0.66387705422E+02  0.12945548381E+03  0.00000000000E+00 0.  1.
          1    1    1    2  502    0  0.43170702135E+02 -0.38011937399E+01 -0.27485437908E+02  0.51318689516E+02  0.00000000000E+00 0.  1.
         22    1    1    2    0    0 -0.12325993399E+01  0.37951891544E+02  0.67908611474E+02  0.77803887340E+02  0.00000000000E+00 0.  1.
         22    1    1    2    0    0  0.45616149938E+02 -0.10260248877E+03  0.25990760819E+03  0.28312553511E+03  0.00000000000E+00 0.  1.
</event>
<event>
 6    1  0.4069520E-005  0.7070525E+02  0.7818608E-02  0.1363860E+00
          2   -1    0    0  502    0  0.00000000000E+00  0.00000000000E+00  0.32211174135E+03  0.32211174135E+03  0.00000000000E+00 0. -1.
          1   -1    0    0  501    0 -0.00000000000E+00 -0.00000000000E+00 -0.44740115300E+02  0.44740115300E+02  0.00000000000E+00 0. -1.
          2    1    1    2  501    0 -0.82641802556E+01 -0.24884427669E+02  0.93789639848E+01  0.27847735655E+02  0.00000000000E+00 0. -1.
          1    1    1    2  502    0  0.77694609812E+01  0.23542964702E+02 -0.14156269451E+02  0.28548829672E+02  0.00000000000E+00 0. -1.
         22    1    1    2    0    0 -0.29235137606E+01 -0.58041272790E+02  0.74678472609E+02  0.94626690479E+02  0.00000000000E+00 0. -1.
         22    1    1    2    0    0  0.34182330351E+01  0.59382735757E+02  0.20747045891E+03  0.21582860085E+03  0.00000000000E+00 0.  1.
</event>
<event>
 6    1  0.4069520E-005  0.7820607E+02  0.7818608E-02  0.1361649E+00
          2   -1    0    0  502    0  0.00000000000E+00  0.00000000000E+00  0.10100427050E+03  0.10100427050E+03  0.00000000000E+00 0. -1.
          1   -1    0    0  501    0 -0.00000000000E+00 -0.00000000000E+00 -0.29443945140E+03  0.29443945140E+03  0.00000000000E+00 0. -1.
          2    1    1    2  501    0 -0.41892056874E+02 -0.17399073851E+02 -0.13614920538E+03  0.14350706716E+03  0.00000000000E+00 0. -1.
          1    1    1    2  502    0  0.55472564565E+02  0.46742655220E+02 -0.91951139677E+02  0.11711999541E+03  0.00000000000E+00 0. -1.
         22    1    1    2    0    0 -0.21457732311E+02  0.18920396145E+02 -0.37793303661E+02  0.47399888901E+02  0.00000000000E+00 0.  1.
         22    1    1    2    0    0  0.78772246200E+01 -0.48263977514E+02  0.72458467816E+02  0.87416770425E+02  0.00000000000E+00 0. -1.
</event>
<event>
 6    1  0.4069520E-005  0.1077021E+03  0.7818608E-02  0.1274667E+00
          2   -1    0    0  502    0  0.00000000000E+00  0.00000000000E+00  0.19905831584E+03  0.19905831584E+03  0.00000000000E+00 0. -1.
          1   -1    0    0  501    0 -0.00000000000E+00 -0.00000000000E+00 -0.20811754495E+03  0.20811754495E+03  0.00000000000E+00 0.  1.
          2    1    1    2  501    0 -0.25926177270E+02 -0.47275598360E+01  0.39310563580E+02  0.47326915162E+02  0.00000000000E+00 0. -1.
          1    1    1    2  502    0  0.66995478368E+02  0.89933622946E+02 -0.13966506328E+03  0.17911666745E+03  0.00000000000E+00 0.  1.
         22    1    1    2    0    0  0.25737708602E+02 -0.85335369968E+02  0.50173195802E+02  0.10228345217E+03  0.00000000000E+00 0.  1.
         22    1    1    2    0    0 -0.66807009700E+02  0.12930685819E+00  0.41122074794E+02  0.78448825999E+02  0.00000000000E+00 0.  1.
</event>
<event>
 6    1  0.4069520E-005  0.8422489E+02  0.7818608E-02  0.1319439E+00
          2   -1    0    0  502    0  0.00000000000E+00  0.00000000000E+00  0.55141289065E+03  0.55141289065E+03  0.00000000000E+00 0. -1.
          1   -1    0    0  501    0 -0.00000000000E+00 -0.00000000000E+00 -0.68833137899E+02  0.68833137899E+02  0.00000000000E+00 0. -1.
          2    1    1    2  501    0 -0.60372049286E+02 -0.30643363380E+02  0.25243276623E+02  0.72256647230E+02  0.00000000000E+00 0. -1.
          1    1    1    2  502    0  0.95017156576E+02 -0.33490481682E+02  0.41803458381E+02  0.10907521047E+03  0.00000000000E+00 0. -1.
         22    1    1    2    0    0 -0.11563733287E+02 -0.13831126557E+02  0.27954301230E+01  0.18243750133E+02  0.00000000000E+00 0.  1.
         22    1    1    2    0    0 -0.23081374003E+02  0.77964971620E+02  0.41273758763E+03  0.42067042072E+03  0.00000000000E+00 0.  1.
</event>
<event>
 6    1  0.4069520E-005  0.3186638E+03  0.7818608E-02  0.1207553E+00
          2   -1    0    0  502    0  0.00000000000E+00  0.00000000000E+00  0.28623246439E+03  0.28623246439E+03  0.00000000000E+00 0.  1.
          1   -1    0    0  501    0 -0.00000000000E+00 -0.00000000000E+00 -0.10928317553E+04  0.10928317553E+04  0.00000000000E+00 0.  1.
          2    1    1    2  501    0  0.11726247519E+03  0.85259457822E+02  0.16889515614E+03  0.22258759400E+03  0.00000000000E+00 0.  1.
          1    1    1    2  502    0 -0.52028755468E+02  0.48535441718E+01 -0.98763958938E+03  0.98902098400E+03  0.00000000000E+00 0.  1.
         22    1    1    2    0    0 -0.78662562133E+02 -0.90154222195E+02 -0.29892339079E+02  0.12332531937E+03  0.00000000000E+00 0.  1.
         22    1    1    2    0    0  0.13428842410E+02  0.41220201545E-01  0.42037481394E+02  0.44130322336E+02  0.00000000000E+00 0.  1.
</event>
<event>
 6    1  0.4069520E-005  0.9554837E+02  0.7818608E-02  0.1300333E+00
          2   -1    0    0  502    0  0.00000000000E+00  0.00000000000E+00  0.90327742002E+02  0.90327742002E+02  0.00000000000E+00 0.  1.
          1   -1    0    0  501    0 -0.00000000000E+00 -0.00000000000E+00 -0.49842528768E+03  0.49842528768E+03  0.00000000000E+00 0.  1.
          2    1    1    2  501    0 -0.52576856600E+02  0.52078749898E+02 -0.10316236671E+03  0.12696060785E+03  0.00000000000E+00 0.  1.
          1    1    1    2  502    0  0.29744417434E+02 -0.17903093384E+02 -0.32778154461E+03  0.32961491487E+03  0.00000000000E+00 0.  1.
         22    1    1    2    0    0 -0.41597933987E+02  0.30027586612E+01 -0.20084784741E+02  0.46290422872E+02  0.00000000000E+00 0.  1.
         22    1    1    2    0    0  0.64430373152E+02 -0.37178415175E+02  0.42931150382E+02  0.85887084084E+02  0.00000000000E+00 0.  1.
</event>
<event>
 6    1  0.4069520E-005  0.2694857E+03  0.7818608E-02  0.1236409E+00
          2   -1    0    0  502    0  0.00000000000E+00  0.00000000000E+00  0.17238598833E+03  0.17238598833E+03  0.00000000000E+00 0.  1.
          1   -1    0    0  501    0 -0.00000000000E+00 -0.00000000000E+00 -0.14429580289E+04  0.14429580289E+04  0.00000000000E+00 0. -1.
          2    1    1    2  501    0  0.51557746317E+02 -0.39111767348E+02  0.12087693321E+03  0.13711004534E+03  0.00000000000E+00 0.  1.
          1    1    1    2  502    0 -0.35466902363E+02 -0.27997907065E+02 -0.13108421457E+04  0.13116207206E+04  0.00000000000E+00 0. -1.
         22    1    1    2    0    0  0.83727671427E+01  0.87874541544E+01  0.33786551932E+02  0.35900608235E+02  0.00000000000E+00 0. -1.
         22    1    1    2    0    0 -0.24463611097E+02  0.58322220259E+02 -0.11439338002E+03  0.13071264298E+03  0.00000000000E+00 0.  1.
</event>
<event>
 6    1  0.4069520E-005  0.3157857E+03  0.7818608E-02  0.1135956E+00
          2   -1    0    0  502    0  0.00000000000E+00  0.00000000000E+00  0.12887325891E+04  0.12887325891E+04  0.00000000000E+00 0. -1.
          1   -1    0    0  501    0 -0.00000000000E+00 -0.00000000000E+00 -0.10168740512E+03  0.10168740512E+03  0.00000000000E+00 0. -1.
          2    1    1    2  501    0 -0.15837015132E+03  0.61461000910E+02  0.88429553337E+02  0.19151591413E+03  0.00000000000E+00 0. -1.
          1    1    1    2  502    0  0.16116052597E+03 -0.22194101249E+03  0.65948532298E+03  0.71424884976E+03  0.00000000000E+00 0. -1.
         22    1    1    2    0    0 -0.55191337712E+02  0.11297375015E+03  0.20905220807E+03  0.24395076897E+03  0.00000000000E+00 0. -1.
         22    1    1    2    0    0  0.52400963063E+02  0.47506261428E+02  0.23007809961E+03  0.24070446137E+03  0.00000000000E+00 0.  1.
</event>
<event>
 6    1  0.4069520E-005  0.1179998E+03  0.7818608E-02  0.1266701E+00
          2   -1    0    0  502    0  0.00000000000E+00  0.00000000000E+00  0.27300674681E+03  0.27300674681E+03  0.00000000000E+00 0. -1.
          1   -1    0    0  501    0 -0.00000000000E+00 -0.00000000000E+00 -0.77944923653E+03  0.77944923653E+03  0.00000000000E+00 0. -1.
          2    1    1    2  501    0  0.24257961469E+02  0.14072494915E+02  0.28771216848E+02  0.40177938308E+02  0.00000000000E+00 0. -1.
          1    1    1    2  502    0 -0.11605224705E+03  0.27793967506E+01 -0.74299984374E+03  0.75201370792E+03  0.00000000000E+00 0. -1.
         22    1    1    2    0    0  0.78545468304E+02 -0.89186479081E+01  0.22420009082E+03  0.23772802442E+03  0.00000000000E+00 0. -1.
         22    1    1    2    0    0  0.13248817277E+02 -0.79332437571E+01 -0.16413953643E+02  0.22536312696E+02  0.00000000000E+00 0. -1.
</event>
<event>
 6    1  0.4069520E-005  0.4745446E+02  0.7818608E-02  0.1493406E+00
          2   -1    0    0  502    0  0.00000000000E+00  0.00000000000E+00  0.20892162299E+03  0.20892162299E+03  0.00000000000E+00 0. -1.
          1   -1    0    0  501    0 -0.00000000000E+00 -0.00000000000E+00 -0.82825894376E+02  0.82825894376E+02  0.00000000000E+00 0. -1.
          2    1    1    2  501    0 -0.12488303158E+02  0.28290985445E+02  0.10337723691E+03  0.10790361757E+03  0.00000000000E+00 0. -1.
          1    1    1    2  502    0  0.27689178814E+02 -0.31951051500E+02 -0.19737557570E+02  0.46659741685E+02  0.00000000000E+00 0. -1.
         22    1    1    2    0    0 -0.22866111284E+02  0.31996258635E+02  0.80226983003E+02  0.89347570833E+02  0.00000000000E+00 0. -1.
         22    1    1    2    0    0  0.76652356275E+01 -0.28336192580E+02 -0.37770933733E+02  0.47836587276E+02  0.00000000000E+00 0. -1.
</event>
<event>
 6    1  0.4069520E-005  0.1019339E+03  0.7818608E-02  0.1281333E+00
          2   -1    0    0  502    0  0.00000000000E+00  0.00000000000E+00  0.16051769604E+03  0.16051769604E+03  0.00000000000E+00 0. -1.
          1   -1    0    0  501    0 -0.00000000000E+00 -0.00000000000E+00 -0.18773262552E+03  0.18773262552E+03  0.00000000000E+00 0. -1.
          2    1    1    2  501    0  0.43460082423E+02 -0.71326534120E+02 -0.64427727443E+02  0.10548547434E+03  0.00000000000E+00 0. -1.
          1    1    1    2  502    0 -0.18793232118E+02  0.24201883955E+02 -0.63975235332E+02  0.70934811596E+02  0.00000000000E+00 0. -1.
         22    1    1    2    0    0  0.66626901066E+01 -0.35701779218E+02 -0.13540269276E+01  0.36343388225E+02  0.00000000000E+00 0. -1.
         22    1    1    2    0    0 -0.31329540412E+02  0.82826429383E+02  0.10254206022E+03  0.13548664739E+03  0.00000000000E+00 0. -1.
</event>
<event>
 6    1  0.4069520E-005  0.6932456E+02  0.7818608E-02  0.1380195E+00
          2   -1    0    0  502    0  0.00000000000E+00  0.00000000000E+00  0.71061868806E+02  0.71061868806E+02  0.00000000000E+00 0. -1.
          1   -1    0    0  501    0 -0.00000000000E+00 -0.00000000000E+00 -0.11214727709E+04  0.11214727709E+04  0.00000000000E+00 0.  1.
          2    1    1    2  501    0 -0.25574749236E+02 -0.57614655422E+01 -0.94668107112E+01  0.27872617185E+02  0.00000000000E+00 0. -1.
          1    1    1    2  502    0  0.11264285166E+02 -0.53317119805E+02 -0.10257603420E+04  0.10272068334E+04  0.00000000000E+00 0.  1.
         22    1    1    2    0    0 -0.26089705438E+02  0.19983429249E+01  0.40394245601E+02  0.48128590068E+02  0.00000000000E+00 0. -1.
         22    1    1    2    0    0  0.40400169509E+02  0.57080242422E+02 -0.55577995005E+02  0.89326599063E+02  0.00000000000E+00 0.  1.
</event>
<event>
 6    1  0.4069520E-005  0.7896073E+02  0.7818608E-02  0.1406465E+00
          2   -1    0    0  502    0  0.00000000000E+00  0.00000000000E+00  0.91475073524E+02  0.91475073524E+02  0.00000000000E+00 0.  1.
          1   -1    0    0  501    0 -0.00000000000E+00 -0.00000000000E+00 -0.24155395962E+03  0.24155395962E+03  0.00000000000E+00 0. -1.
          2    1    1    2  501    0  0.25611034415E+02 -0.13668623001E+02 -0.14887719729E+02  0.32625151912E+02  0.00000000000E+00 0.  1.
          1    1    1    2  502    0  0.56358769877E-01  0.52469652093E+02 -0.15634881268E+03  0.16491821851E+03  0.00000000000E+00 0. -1.
         22    1    1    2    0    0 -0.20929277977E+02 -0.61278106483E+02 -0.35856141243E+02  0.74018267175E+02  0.00000000000E+00 0.  1.
         22    1    1    2    0    0 -0.47381152071E+01  0.22477077391E+02  0.57013787561E+02  0.61467395551E+02  0.00000000000E+00 0.  1.
</event>
<event>
 6    1  0.4069520E-005  0.7727475E+02  0.7818608E-02  0.1386372E+00
          2   -1    0    0  502    0  0.00000000000E+00  0.00000000000E+00  0.61419779682E+03  0.61419779682E+03  0.00000000000E+00 0. -1.
          1   -1    0    0  501    0 -0.00000000000E+00 -0.00000000000E+00 -0.10662751758E+03  0.10662751758E+03  0.00000000000E+00 0. -1.
          2    1    1    2  501    0  0.24251258811E+02  0.22367456686E+02 -0.51096813837E+02  0.60821961961E+02  0.00000000000E+00 0. -1.
          1    1    1    2  502    0 -0.11787123625E+02 -0.78365371660E+02  0.50637397209E+03  0.51253747899E+03  0.00000000000E+00 0. -1.
         22    1    1    2    0    0 -0.31126985409E+02  0.27881914883E+02 -0.34597631060E+02  0.54252064229E+02  0.00000000000E+00 0. -1.
         22    1    1    2    0    0  0.18662850223E+02  0.28116000091E+02  0.86890752049E+02  0.93213809230E+02  0.00000000000E+00 0.  1.
</event>
<event>
 6    1  0.4069520E-005  0.2321713E+03  0.7818608E-02  0.1244515E+00
          2   -1    0    0  502    0  0.00000000000E+00  0.00000000000E+00  0.71792013478E+02  0.71792013478E+02  0.00000000000E+00 0.  1.
          1   -1    0    0  501    0 -0.00000000000E+00 -0.00000000000E+00 -0.25827501677E+04  0.25827501677E+04  0.00000000000E+00 0. -1.
          2    1    1    2  501    0  0.12453391461E+03  0.95217044987E+01 -0.21614921166E+03  0.24963942086E+03  0.00000000000E+00 0.  1.
          1    1    1    2  502    0 -0.37965922918E+02 -0.14337518105E+02 -0.22446882821E+04  0.22450551128E+04  0.00000000000E+00 0. -1.
         22    1    1    2    0    0 -0.96342877284E+02  0.17610849596E+02 -0.79633409227E+02  0.12622825315E+03  0.00000000000E+00 0.  1.
         22    1    1    2    0    0  0.97748855940E+01 -0.12795035990E+02  0.29512748797E+02  0.33619394341E+02  0.00000000000E+00 0.  1.
</event>
<event>
 6    1  0.4069520E-005  0.1063886E+03  0.7818608E-02  0.1269240E+00
          2   -1    0    0  502    0  0.00000000000E+00  0.00000000000E+00  0.84676614636E+03  0.84676614636E+03  0.00000000000E+00 0.  1.
          1   -1    0    0  501    0 -0.00000000000E+00 -0.00000000000E+00 -0.82391912796E+02  0.82391912796E+02  0.00000000000E+00 0. -1.
          2    1    1    2  501    0  0.20931008116E+02  0.63778820372E+02  0.32655824668E+03  0.33338586278E+03  0.00000000000E+00 0.  1.
          1    1    1    2  502    0  0.45262558117E+02 -0.23265107511E+02 -0.58198285098E+02  0.77311090945E+02  0.00000000000E+00 0. -1.
         22    1    1    2    0    0 -0.57415352721E+02 -0.84036314523E+02  0.27981525745E+03  0.29775023626E+03  0.00000000000E+00 0.  1.
         22    1    1    2    0    0 -0.87782135119E+01  0.43522601662E+02  0.21619901453E+03  0.22071086917E+03  0.00000000000E+00 0.  1.
</event>
<event>
 6    1  0.4069520E-005  0.1428161E+03  0.7818608E-02  0.1320381E+00
          2   -1    0    0  502    0  0.00000000000E+00  0.00000000000E+00  0.11188408721E+03  0.11188408721E+03  0.00000000000E+00 0. -1.
          1   -1    0    0  501    0 -0.00000000000E+00 -0.00000000000E+00 -0.33881383059E+03  0.33881383059E+03  0.00000000000E+00 0.  1.
          2    1    1    2  501    0  0.25017544822E+02  0.88301311434E+02 -0.40374357409E+02  0.10026508807E+03  0.00000000000E+00 0. -1.
          1    1    1    2  502    0 -0.15266136833E+02 -0.12911417117E+03 -0.17654108026E+03  0.21924934926E+03  0.00000000000E+00 0.  1.
         22    1    1    2    0    0 -0.86958895066E+01  0.24447678482E+02 -0.67018938518E+02  0.71866860218E+02  0.00000000000E+00 0. -1.
         22    1    1    2    0    0 -0.10555184827E+01  0.16365181253E+02  0.57004632804E+02  0.59316620249E+02  0.00000000000E+00 0. -1.
</event>
<event>
 6    1  0.4069520E-005  0.2068757E+03  0.7818608E-02  0.1157645E+00
          2   -1    0    0  502    0  0.00000000000E+00  0.00000000000E+00  0.72003766730E+03  0.72003766730E+03  0.00000000000E+00 0.  1.
          1   -1    0    0  501    0 -0.00000000000E+00 -0.00000000000E+00 -0.82934996431E+03  0.82934996431E+03  0.00000000000E+00 0.  1.
          2    1    1    2  501    0  0.73058082464E+02 -0.15714773404E+03  0.41006546532E+03  0.44518151307E+03  0.00000000000E+00 0.  1.
          1    1    1    2  502    0 -0.94418125635E+01  0.34164001298E+02 -0.78132263670E+03  0.78212619789E+03  0.00000000000E+00 0.  1.
         22    1    1    2    0    0 -0.44565210782E+02 -0.63320510443E+01  0.12458147307E+03  0.13246394345E+03  0.00000000000E+00 0.  1.
         22    1    1    2    0    0 -0.19051059119E+02  0.12931578379E+03  0.13736340131E+03  0.18961597720E+03  0.00000000000E+00 0.  1.
</event>
<event>
 6    1  0.4069520E-005  0.1195139E+03  0.7818608E-02  0.1334471E+00
          2   -1    0    0  502    0  0.00000000000E+00  0.00000000000E+00  0.38061901268E+03  0.38061901268E+03  0.00000000000E+00 0. -1.
          1   -1    0    0  501    0 -0.00000000000E+00 -0.00000000000E+00 -0.12446358019E+03  0.12446358019E+03  0.00000000000E+00 0.  1.
          2    1    1    2  501    0 -0.35130033947E+02 -0.31847201213E+02  0.83605188872E+02  0.96115509241E+02  0.00000000000E+00 0. -1.
          1    1    1    2  502    0  0.18675757756E+02 -0.16390283037E+02 -0.10157280793E+03  0.10456797127E+03  0.00000000000E+00 0.  1.
         22    1    1    2    0    0  0.62194126086E+01 -0.20912473769E+02  0.32678711709E+00  0.21820161369E+02  0.00000000000E+00 0.  1.
         22    1    1    2    0    0  0.10234863583E+02  0.69149958020E+02  0.27379626443E+03  0.28257895099E+03  0.00000000000E+00 0.  1.
</event>
<event>
 6    1  0.4069520E-005  0.6064638E+02  0.7818608E-02  0.1400992E+00
          2   -1    0    0  502    0  0.00000000000E+00  0.00000000000E+00  0.29679081542E+02  0.29679081542E+02  0.00000000000E+00 0. -1.
          1   -1    0    0  501    0 -0.00000000000E+00 -0.00000000000E+00 -0.36462598928E+03  0.36462598928E+03  0.00000000000E+00 0. -1.
          2    1    1    2  501    0 -0.22583129162E+02 -0.10103093417E+02 -0.85299411459E+02  0.88814749983E+02  0.00000000000E+00 0. -1.
          1    1    1    2  502    0  0.23458626902E+02  0.18644473638E+02 -0.13475536850E+03  0.13804685043E+03  0.00000000000E+00 0. -1.
         22    1    1    2    0    0 -0.34151976740E+02 -0.45705493394E+01  0.11779028390E+02  0.36414186059E+02  0.00000000000E+00 0. -1.
         22    1    1    2    0    0  0.33276479000E+02 -0.39708308819E+01 -0.12667115617E+03  0.13102928435E+03  0.00000000000E+00 0.  1.
</event>
<event>
 6    1  0.4069520E-005  0.1310872E+03  0.7818608E-02  0.1243277E+00
          2   -1    0    0  502    0  0.00000000000E+00  0.00000000000E+00  0.57278250830E+03  0.57278250830E+03  0.00000000000E+00 0. -1.
          1   -1    0    0  501    0 -0.00000000000E+00 -0.00000000000E+00 -0.48016201250E+03  0.48016201250E+03  0.00000000000E+00 0.  1.
          2    1    1    2  501    0  0.10014669943E+03  0.43876900702E+02  0.68453653783E+02  0.12899785478E+03  0.00000000000E+00 0. -1.
          1    1    1    2  502    0 -0.47052082199E+02  0.57972900366E+01 -0.43750967417E+03  0.44007070114E+03  0.00000000000E+00 0.  1.
         22    1    1    2    0    0 -0.84751878042E+02 -0.17397156538E+02  0.38722143402E+03  0.39676943034E+03  0.00000000000E+00 0. -1.
         22    1    1    2    0    0  0.31657260814E+02 -0.32277034200E+02  0.74455082163E+02  0.87106534536E+02  0.00000000000E+00 0.  1.
</event>
<event>
 6    1  0.4069520E-005  0.6168194E+02  0.7818608E-02  0.1487282E+00
          2   -1    0    0  502    0  0.00000000000E+00  0.00000000000E+00  0.64590423667E+02  0.64590423667E+02  0.00000000000E+00 0. -1.
          1   -1    0    0  501    0 -0.00000000000E+00 -0.00000000000E+00 -0.48318454166E+03  0.48318454166E+03  0.00000000000E+00 0. -1.
          2    1    1    2  501    0  0.41637237428E+02  0.34760815991E+02 -0.21519363831E+03  0.22192403168E+03  0.00000000000E+00 0. -1.
          1    1    1    2  502    0 -0.45465545126E+02 -0.22552633193E+02 -0.19578199512E+03  0.20225312525E+03  0.00000000000E+00 0. -1.
         22    1    1    2    0    0 -0.10845958728E+02 -0.97094358315E+01  0.56205981517E+02  0.58060488485E+02  0.00000000000E+00 0. -1.
         22    1    1    2    0    0  0.14674266427E+02 -0.24987469660E+01 -0.63824466069E+02  0.65537319907E+02  0.00000000000E+00 0. -1.
</event>
<event>
 6    1  0.4069520E-005  0.1834628E+03  0.7818608E-02  0.1220210E+00
          2   -1    0    0  502    0  0.00000000000E+00  0.00000000000E+00  0.39631637349E+03  0.39631637349E+03  0.00000000000E+00 0. -1.
          1   -1    0    0  501    0 -0.00000000000E+00 -0.00000000000E+00 -0.44853443873E+03  0.44853443873E+03  0.00000000000E+00 0. -1.
          2    1    1    2  501    0  0.13438413453E+03 -0.14208688773E+03 -0.90874814764E+01  0.19578141280E+03  0.00000000000E+00 0. -1.
          1    1    1    2  502    0 -0.13247299633E+03  0.10391652959E+03 -0.30916808596E+03  0.35204068693E+03  0.00000000000E+00 0. -1.
         22    1    1    2    0    0 -0.31167116444E+02  0.43851948412E+02  0.26138619234E+03  0.26686536695E+03  0.00000000000E+00 0. -1.
         22    1    1    2    0    0  0.29255978241E+02 -0.56815902723E+01  0.46513098570E+01  0.30163345541E+02  0.00000000000E+00 0. -1.
</event>
<event>
 6    1  0.4069520E-005  0.8306296E+02  0.7818608E-02  0.1325343E+00
          2   -1    0    0  502    0  0.00000000000E+00  0.00000000000E+00  0.28220384903E+03  0.28220384903E+03  0.00000000000E+00 0. -1.
          1   -1    0    0  501    0 -0.00000000000E+00 -0.00000000000E+00 -0.14978656295E+03  0.14978656295E+03  0.00000000000E+00 0. -1.
          2    1    1    2  501    0 -0.38591855186E+02  0.18390250326E+02 -0.83957978490E+02  0.94215045221E+02  0.00000000000E+00 0. -1.
          1    1    1    2  502    0  0.65151226124E+02 -0.59395433494E+02  0.18213507061E+03  0.20235039840E+03  0.00000000000E+00 0. -1.
         22    1    1    2    0    0  0.30197375204E+02 -0.34608819574E+01  0.52844569949E+02  0.60962346955E+02  0.00000000000E+00 0. -1.
         22    1    1    2    0    0 -0.56756746143E+02  0.44466065126E+02 -0.18604375990E+02  0.74462621404E+02  0.00000000000E+00 0.  1.
</event>
<event>
 6    1  0.4069520E-005  0.2037924E+03  0.7818608E-02  0.1271679E+00
          2   -1    0    0  502    0  0.00000000000E+00  0.00000000000E+00  0.10200712292E+03  0.10200712292E+03  0.00000000000E+00 0.  1.
          1   -1    0    0  501    0 -0.00000000000E+00 -0.00000000000E+00 -0.88851571785E+03  0.88851571785E+03  0.00000000000E+00 0.  1.
          2    1    1    2  501    0 -0.30708570311E+02 -0.12477362302E+03 -0.62671892792E+02  0.14296586809E+03  0.00000000000E+00 0.  1.
          1    1    1    2  502    0 -0.14855514458E+02  0.67110758772E+02 -0.69524660478E+03  0.69863608675E+03  0.00000000000E+00 0.  1.
         22    1    1    2    0    0  0.57108281286E+02  0.49857467840E+02 -0.71253463237E+02  0.10403931427E+03  0.00000000000E+00 0. -1.
         22    1    1    2    0    0 -0.11544196516E+02  0.78053964102E+01  0.42663365883E+02  0.44881571662E+02  0.00000000000E+00 0.  1.
</event>
<event>
 6    1  0.4069520E-005  0.7920208E+02  0.7818608E-02  0.1373997E+00
          2   -1    0    0  502    0  0.00000000000E+00  0.00000000000E+00  0.16254519653E+03  0.16254519653E+03  0.00000000000E+00 0. -1.
          1   -1    0    0  501    0 -0.00000000000E+00 -0.00000000000E+00 -0.61006779181E+03  0.61006779181E+03  0.00000000000E+00 0.  1.
          2    1    1    2  501    0 -0.21890803695E+02  0.12544802461E+02 -0.18984817720E+02  0.31575348914E+02  0.00000000000E+00 0. -1.
          1    1    1    2  502    0  0.40806952237E+02 -0.44419954324E+02 -0.55539241800E+03  0.55865828345E+03  0.00000000000E+00 0.  1.
         22    1    1    2    0    0  0.16004537825E+02  0.47727132142E+02  0.50903684117E+00  0.50341667552E+02  0.00000000000E+00 0.  1.
         22    1    1    2    0    0 -0.34920686367E+02 -0.15851980279E+02  0.12634560360E+03  0.13203768842E+03  0.00000000000E+00 0. -1.
</event>
<event>
 6    1  0.4069520E-005  0.3593479E+03  0.7818608E-02  0.1163312E+00
          2   -1    0    0  502    0  0.00000000000E+00  0.00000000000E+00  0.78908411615E+03  0.78908411615E+03  0.00000000000E+00 0. -1.
          1   -1    0    0  501    0 -0.00000000000E+00 -0.00000000000E+00 -0.13845722620E+03  0.13845722620E+03  0.00000000000E+00 0. -1.
          2    1    1    2  501    0  0.11419548848E+03 -0.34440847372E+02  0.63274032277E+02  0.13501994193E+03  0.00000000000E+00 0. -1.
          1    1    1    2  502    0 -0.96357723889E+01 -0.40186038130E+02 -0.86084309019E+02  0.95489654044E+02  0.00000000000E+00 0. -1.
         22    1    1    2    0    0  0.23406267296E+02 -0.90375193817E+01  0.64863362203E+02  0.69547004691E+02  0.00000000000E+00 0. -1.
         22    1    1    2    0    0 -0.12796598339E+03  0.83664404884E+02  0.60857380449E+03  0.62748474169E+03  0.00000000000E+00 0. -1.
</event>
<event>
 6    1  0.4069520E-005  0.1486347E+03  0.7818608E-02  0.1252000E+00
          2   -1    0    0  502    0  0.00000000000E+00  0.00000000000E+00  0.55279022879E+02  0.55279022879E+02  0.00000000000E+00 0.  1.
          1   -1    0    0  501    0 -0.00000000000E+00 -0.00000000000E+00 -0.79003780606E+03  0.79003780606E+03  0.00000000000E+00 0.  1.
          2    1    1    2  501    0 -0.30095813588E+02 -0.63444818876E+02 -0.19403947971E+03  0.20635484662E+03  0.00000000000E+00 0.  1.
          1    1    1    2  502    0 -0.59491626870E+02  0.13204882897E+03 -0.37295438832E+03  0.40008889346E+03  0.00000000000E+00 0.  1.
         22    1    1    2    0    0  0.52179778016E+02 -0.82020889537E+01  0.40226152924E+01  0.52973436086E+02  0.00000000000E+00 0.  1.
         22    1    1    2    0    0  0.37407662442E+02 -0.60401921137E+02 -0.17178753044E+03  0.18589965277E+03  0.00000000000E+00 0.  1.
</event>
<event>
 6    1  0.4069520E-005  0.2383037E+03  0.7818608E-02  0.1246092E+00
          2   -1    0    0  502    0  0.00000000000E+00  0.00000000000E+00  0.16824502628E+03  0.16824502628E+03  0.00000000000E+00 0. -1.
          1   -1    0    0  501    0 -0.00000000000E+00 -0.00000000000E+00 -0.93117981301E+03  0.93117981301E+03  0.00000000000E+00 0.  1.
          2    1    1    2  501    0  0.17327482169E+03  0.10286632196E+03 -0.10777681441E+03  0.22852020862E+03  0.00000000000E+00 0. -1.
          1    1    1    2  502    0 -0.17966886551E+03 -0.53755570766E+02 -0.70405680891E+03  0.72860589676E+03  0.00000000000E+00 0.  1.
         22    1    1    2    0    0 -0.12397055079E+02 -0.73749978117E+01  0.83615825296E+02  0.84850950539E+02  0.00000000000E+00 0. -1.
         22    1    1    2    0    0  0.18791098902E+02 -0.41735753381E+02 -0.34716988710E+02  0.57447783363E+02  0.00000000000E+00 0. -1.
</event>
<event>
 6    1  0.4069520E-005  0.1114091E+03  0.7818608E-02  0.1288933E+00
          2   -1    0    0  502    0  0.00000000000E+00  0.00000000000E+00  0.12900127219E+03  0.12900127219E+03  0.00000000000E+00 0. -1.
          1   -1    0    0  501    0 -0.00000000000E+00 -0.00000000000E+00 -0.19177949591E+03  0.19177949591E+03  0.00000000000E+00 0. -1.
          2    1    1    2  501    0  0.92063919516E+01  0.40044708596E+02 -0.73426204737E+00  0.41095930213E+02  0.00000000000E+00 0. -1.
          1    1    1    2  502    0 -0.66374444676E+02 -0.49304914069E+02 -0.10724016095E+03  0.13541415575E+03  0.00000000000E+00 0. -1.
         22    1    1    2    0    0  0.28874290189E+02 -0.45265697419E+02 -0.17524375534E+02  0.56478418308E+02  0.00000000000E+00 0. -1.
         22    1    1    2    0    0  0.28293762535E+02  0.54525902891E+02  0.62720574803E+02  0.87792263828E+02  0.00000000000E+00 0. -1.
</event>
<event>
 6    1  0.4069520E-005  0.1386276E+03  0.7818608E-02  0.1259107E+00
          2   -1    0    0  502    0  0.00000000000E+00  0.00000000000E+00  0.65328317017E+02  0.65328317017E+02  0.00000000000E+00 0. -1.
          1   -1    0    0  501    0 -0.00000000000E+00 -0.00000000000E+00 -0.50182819152E+03  0.50182819152E+03  0.00000000000E+00 0. -1.
          2    1    1    2  501    0 -0.57735729386E+02  0.37662611794E+02 -0.28419007205E+03  0.29243098986E+03  0.00000000000E+00 0. -1.
          1    1    1    2  502    0  0.32391945293E+02  0.57009617956E+02 -0.16107044410E+02  0.67518675483E+02  0.00000000000E+00 0. -1.
         22    1    1    2    0    0  0.47273481131E+02 -0.31052851345E+02 -0.14417674788E+01  0.56578620418E+02  0.00000000000E+00 0. -1.
         22    1    1    2    0    0 -0.21929697038E+02 -0.63619378405E+02 -0.13476099056E+03  0.15062822278E+03  0.00000000000E+00 0. -1.
</event>
<event>
 6    1  0.4069520E-005  0.2582973E+03  0.7818608E-02  0.1224574E+00
          2   -1    0    0  502    0  0.00000000000E+00  0.00000000000E+00  0.78869832518E+02  0.78869832518E+02  0.00000000000E+00 0. -1.
          1   -1    0    0  501    0 -0.00000000000E+00 -0.00000000000E+00 -0.15973893132E+04  0.15973893132E+04  0.00000000000E+00 0. -1.
          2    1    1    2  501    0  0.14882992555E+03 -0.37072386657E+01 -0.10643844502E+03  0.18301156504E+03  0.00000000000E+00 0. -1.
          1    1    1    2  502    0 -0.31666872602E+02  0.35063705094E+01 -0.12685485407E+04  0.12689485748E+04  0.00000000000E+00 0. -1.
         22    1    1    2    0    0 -0.10034024537E+03  0.53611198014E+01 -0.16704066951E+03  0.19493458317E+03  0.00000000000E+00 0. -1.
         22    1    1    2    0    0 -0.16822807583E+02 -0.51602516451E+01  0.23508174518E+02  0.29364422712E+02  0.00000000000E+00 0.  1.
</event>
<event>
 6    1  0.4069520E-005  0.1628413E+03  0.7818608E-02  0.1238719E+00
          2   -1    0    0  502    0  0.00000000000E+00  0.00000000000E+00  0.19563531399E+03  0.19563531399E+03  0.00000000000E+00 0. -1.
          1   -1    0    0  501    0 -0.00000000000E+00 -0.00000000000E+00 -0.30496764813E+03  0.30496764813E+03  0.00000000000E+00 0. -1.
          2    1    1    2  501    0  0.11073400738E+03 -0.58283207514E+02 -0.21935336614E+02  0.12704373916E+03  0.00000000000E+00 0. -1.
          1    1    1    2  502    0 -0.73051007041E+02  0.90377321050E+02 -0.17849489610E+03  0.21299046393E+03  0.00000000000E+00 0. -1.
         22    1    1    2    0    0 -0.45392293544E+00 -0.69082081811E+02  0.19473171463E+02  0.71775653812E+02  0.00000000000E+00 0. -1.
         22    1    1    2    0    0 -0.37229077400E+02  0.36987968274E+02  0.71624727112E+02  0.88793105222E+02  0.00000000000E+00 0. -1.
</event>
<event>
 6    1  0.4069520E-005  0.9224512E+02  0.7818608E-02  0.1297839E+00
          2   -1    0    0  502    0  0.00000000000E+00  0.00000000000E+00  0.11045797275E+03  0.11045797275E+03  0.00000000000E+00 0. -1.
          1   -1    0    0  501    0 -0.00000000000E+00 -0.00000000000E+00 -0.40473735558E+03  0.40473735558E+03  0.00000000000E+00 0. -1.
          2    1    1    2  501    0 -0.29095649056E+02 -0.26637226207E+02 -0.10460249352E+03  0.11179347148E+03  0.00000000000E+00 0. -1.
          1    1    1    2  502    0  0.15240012598E+03  0.75624750330E+02 -0.64784703546E+02  0.18204933143E+03  0.00000000000E+00 0. -1.
         22    1    1    2    0    0 -0.80633376343E+02 -0.45390251735E+02 -0.34653706461E+01  0.92596031916E+02  0.00000000000E+00 0. -1.
         22    1    1    2    0    0 -0.42671100577E+02 -0.35972723878E+01 -0.12142681511E+03  0.12875649351E+03  0.00000000000E+00 0. -1.
</event>
<event>
 6    1  0.4069520E-005  0.8224444E+02  0.7818608E-02  0.1324860E+00
          2   -1    0    0  502    0  0.00000000000E+00  0.00000000000E+00  0.40644763326E+03  0.40644763326E+03  0.00000000000E+00 0. -1.
          1   -1    0    0  501    0 -0.00000000000E+00 -0.00000000000E+00 -0.22327186449E+03  0.22327186449E+03  0.00000000000E+00 0.  1.
          2    1    1    2  501    0  0.89197340295E+01 -0.25308924567E+02  0.63665528759E+01  0.27579635846E+02  0.00000000000E+00 0. -1.
          1    1    1    2  502    0  0.42974808199E+02 -0.48744205922E+01 -0.19869361917E+03  0.20334637547E+03  0.00000000000E+00 0.  1.
         22    1    1    2    0    0 -0.71965583296E+02  0.51647225026E+02  0.34597583333E+03  0.35713549009E+03  0.00000000000E+00 0. -1.
         22    1    1    2    0    0  0.20071041067E+02 -0.21463879868E+02  0.29527001733E+02  0.41657996349E+02  0.00000000000E+00 0. -1.
</event>
<event>
 6    1  0.4069520E-005  0.8840983E+02  0.7818608E-02  0.1397552E+00
          2   -1    0    0  502    0  0.00000000000E+00  0.00000000000E+00  0.81086927431E+02  0.81086927431E+02  0.00000000000E+00 0. -1.
          1   -1    0    0  501    0 -0.00000000000E+00 -0.00000000000E+00 -0.69488614802E+03  0.69488614802E+03  0.00000000000E+00 0. -1.
          2    1    1    2  501    0 -0.90458274364E+01 -0.31084208338E+02 -0.20383905406E+02  0.38256484439E+02  0.00000000000E+00 0. -1.
          1    1    1    2  502    0  0.42000255459E+02  0.70837693282E+02 -0.59902909818E+03  0.60466342763E+03  0.00000000000E+00 0. -1.
         22    1    1    2    0    0 -0.49778735582E+02 -0.31279020737E+02 -0.48208947218E+02  0.76028956630E+02  0.00000000000E+00 0. -1.
         22    1    1    2    0    0  0.16824307559E+02 -0.84744642071E+01  0.53822730212E+02  0.57024206754E+02  0.00000000000E+00 0. -1.
</event>
<event>
 6    1  0.4069520E-005  0.1877252E+03  0.7818608E-02  0.1221839E+00
          2   -1    0    0  502    0  0.00000000000E+00  0.00000000000E+00  0.73309384067E+02  0.73309384067E+02  0.00000000000E+00 0. -1.
          1   -1    0    0  501    0 -0.00000000000E+00 -0.00000000000E+00 -0.14271151220E+04  0.14271151220E+04  0.00000000000E+00 0. -1.
          2    1    1    2  501    0  0.50408599601E+01 -0.10037628443E+03 -0.92807600862E+02  0.13679934036E+03  0.00000000000E+00 0. -1.
          1    1    1    2  502    0 -0.62634918305E+02  0.17125428399E+02 -0.11783969494E+04  0.11801846396E+04  0.00000000000E+00 0. -1.
         22    1    1    2    0    0  0.77488594942E+02  0.38984283857E+02  0.10290163167E+01  0.86748576983E+02  0.00000000000E+00 0. -1.
         22    1    1    2    0    0 -0.19894536597E+02  0.44266572177E+02 -0.83630204003E+02  0.96691949098E+02  0.00000000000E+00 0. -1.
</event>
<event>
 6    1  0.4069520E-005  0.3372139E+03  0.7818608E-02  0.1175888E+00
          2   -1    0    0  502    0  0.00000000000E+00  0.00000000000E+00  0.23556223627E+03  0.23556223627E+03  0.00000000000E+00 0.  1.
          1   -1    0    0  501    0 -0.00000000000E+00 -0.00000000000E+00 -0.14995561284E+04  0.14995561284E+04  0.00000000000E+00 0. -1.
          2    1    1    2  501    0 -0.17322047117E+03 -0.44385495512E+02 -0.31249996471E+02  0.18152676421E+03  0.00000000000E+00 0.  1.
          1    1    1    2  502    0  0.16582833185E+02  0.24922159242E+02 -0.13278337781E+04  0.13281711662E+04  0.00000000000E+00 0. -1.
         22    1    1    2    0    0  0.15493379896E+03 -0.32403538995E+01  0.31849760555E+02  0.15820679252E+03  0.00000000000E+00 0.  1.
         22    1    1    2    0    0  0.17038390275E+01  0.22703690169E+02  0.63240121921E+02  0.67213641735E+02  0.00000000000E+00 0. -1.
</event>
<event>
 6    1  0.4069520E-005  0.1556247E+03  0.7818608E-02  0.1308625E+00
          2   -1    0    0  502    0  0.00000000000E+00  0.00000000000E+00  0.43029386771E+02  0.43029386771E+02  0.00000000000E+00 0. -1.
          1   -1    0    0  501    0 -0.00000000000E+00 -0.00000000000E+00 -0.12679238665E+04  0.12679238665E+04  0.00000000000E+00 0. -1.
          2    1    1    2  501    0 -0.55813653738E+02 -0.10369815481E+03 -0.35633482644E+03  0.37529052718E+03  0.00000000000E+00 0. -1.
          1    1    1    2  502    0  0.70720068964E+02  0.13272116831E+03 -0.72496571489E+03  0.74039957080E+03  0.00000000000E+00 0. -1.
         22    1    1    2    0    0  0.15175740602E+02 -0.38834152302E+01  0.20924354799E+02  0.26138336604E+02  0.00000000000E+00 0. -1.
         22    1    1    2    0    0 -0.30082155828E+02 -0.25139598272E+02 -0.16451829317E+03  0.16912481867E+03  0.00000000000E+00 0. -1.
</event>
<event>
 6    1  0.4069520E-005  0.6802727E+02  0.7818608E-02  0.1370579E+00
          2   -1    0    0  502    0  0.00000000000E+00  0.00000000000E+00  0.46511683717E+03  0.46511683717E+03  0.00000000000E+00 0. -1.
          1   -1    0    0  501    0 -0.00000000000E+00 -0.00000000000E+00 -0.21318763718E+03  0.21318763718E+03  0.00000000000E+00 0. -1.
          2    1    1    2  501    0 -0.45174933245E+02  0.37193728063E+00  0.78948312623E+02  0.90960150599E+02  0.00000000000E+00 0. -1.
          1    1    1    2  502    0  0.42248632503E+02  0.91455992302E+01 -0.19511555264E+03  0.19984661072E+03  0.00000000000E+00 0. -1.
         22    1    1    2    0    0  0.47549838639E+02 -0.33488699776E+02  0.27910112845E+03  0.28509633472E+03  0.00000000000E+00 0. -1.
         22    1    1    2    0    0 -0.44623537897E+02  0.23971163265E+02  0.88995311555E+02  0.10240137832E+03  0.00000000000E+00 0. -1.
</event>
<event>
 6    1  0.4069520E-005  0.3667662E+03  0.7818608E-02  0.1167968E+00
          2   -1    0    0  502    0  0.00000000000E+00  0.00000000000E+00  0.48976297455E+03  0.48976297455E+03  0.00000000000E+00 0. -1.
          1   -1    0    0  501    0 -0.00000000000E+00 -0.00000000000E+00 -0.27361135662E+03  0.27361135662E+03  0.00000000000E+00 0. -1.
          2    1    1    2  501    0  0.14842373735E+02  0.19284112258E+03  0.15010486765E+03  0.24482537840E+03  0.00000000000E+00 0. -1.
          1    1    1    2  502    0 -0.28162642570E+02 -0.35779424317E+02 -0.18908349666E+03  0.19448874094E+03  0.00000000000E+00 0. -1.
         22    1    1    2    0    0  0.31130364475E+02 -0.16855598785E+03  0.19157181064E+03  0.25706026388E+03  0.00000000000E+00 0. -1.
         22    1    1    2    0    0 -0.17810095641E+02  0.11494289584E+02  0.63558436300E+02  0.66999947946E+02  0.00000000000E+00 0.  1.
</event>
<event>
 6    1  0.4069520E-005  0.9150803E+02  0.7818608E-02  0.1303120E+00
          2   -1    0    0  502    0  0.00000000000E+00  0.00000000000E+00  0.13753854505E+03  0.13753854505E+03  0.00000000000E+00 0. -1.
          1   -1    0    0  501    0 -0.00000000000E+00 -0.00000000000E+00 -0.91622693234E+03  0.91622693234E+03  0.00000000000E+00 0. -1.
          2    1    1    2  501    0 -0.36442981120E+02  0.32025761528E+02 -0.48817909756E+02  0.68825348436E+02  0.00000000000E+00 0. -1.
          1    1    1    2  502    0 -0.19543066651E+02 -0.32455247473E+02 -0.81962073781E+03  0.82049584301E+03  0.00000000000E+00 0. -1.
         22    1    1    2    0    0  0.83484872284E+02 -0.23494189637E+02  0.93824518600E+02  0.12776831038E+03  0.00000000000E+00 0. -1.
         22    1    1    2    0    0 -0.27498824514E+02  0.23923675582E+02 -0.40742583216E+01  0.36675975568E+02  0.00000000000E+00 0. -1.
</event>
<event>
 6    1  0.4069520E-005  0.1889377E+03  0.7818608E-02  0.1229707E+00
          2   -1    0    0  502    0  0.00000000000E+00  0.00000000000E+00  0.21938943771E+03  0.21938943771E+03  0.00000000000E+00 0. -1.
          1   -1    0    0  501    0 -0.00000000000E+00 -0.00000000000E+00 -0.27149800487E+03  0.27149800487E+03  0.00000000000E+00 0. -1.
          2    1    1    2  501    0  0.10005221980E+03 -0.84937929832E+01  0.16412660210E+02  0.10174461470E+03  0.00000000000E+00 0. -1.
          1    1    1    2  502    0 -0.11073971858E+03 -0.19659292845E+02 -0.18451079022E+03  0.21608795611E+03  0.00000000000E+00 0. -1.
         22    1    1    2    0    0  0.72107308271E+01  0.68421861404E+02  0.11329159841E+03  0.13254633917E+03  0.00000000000E+00 0.  1.
         22    1    1    2    0    0  0.34767679571E+01 -0.40268775576E+02  0.26979644346E+01  0.40508532606E+02  0.00000000000E+00 0.  1.
</event>
<event>
 6    1  0.4069520E-005  0.1551165E+03  0.7818608E-02  0.1293435E+00
          2   -1    0    0  502    0  0.00000000000E+00  0.00000000000E+00  0.13625488679E+03  0.13625488679E+03  0.00000000000E+00 0. -1.
          1   -1    0    0  501    0 -0.00000000000E+00 -0.00000000000E+00 -0.48233098330E+03  0.48233098330E+03  0.00000000000E+00 0.  1.
          2    1    1    2  501    0 -0.34066608146E+02 -0.59610583311E+02  0.51287684375E+02  0.85699369904E+02  0.00000000000E+00 0. -1.
          1    1    1    2  502    0 -0.38012449552E+01  0.44181056592E+02 -0.40180914973E+03  0.40424869577E+03  0.00000000000E+00 0.  1.
         22    1    1    2    0    0 -0.19071789207E+02  0.86031344274E+01  0.50773423362E+02  0.54915276431E+02  0.00000000000E+00 0. -1.
         22    1    1    2    0    0  0.56939642309E+02  0.68263922920E+01 -0.46328054519E+02  0.73722527992E+02  0.00000000000E+00 0. -1.
</event>
<event>
 6    1  0.4069520E-005  0.2555311E+03  0.7818608E-02  0.1245058E+00
          2   -1    0    0  502    0  0.00000000000E+00  0.00000000000E+00  0.31563698652E+02  0.31563698652E+02  0.00000000000E+00 0. -1.
          1   -1    0    0  501    0 -0.00000000000E+00 -0.00000000000E+00 -0.11129955431E+04  0.11129955431E+04  0.00000000000E+00 0. -1.
          2    1    1    2  501    0 -0.10086608609E+03  0.61569752872E+02 -0.46484698498E+03  0.47963269409E+03  0.00000000000E+00 0. -1.
          1    1    1    2  502    0 -0.21575801153E+02 -0.52490101187E+02 -0.26622300997E+03  0.27220473353E+03  0.00000000000E+00 0. -1.
         22    1    1    2    0    0  0.13171047630E+03 -0.16615770243E+02 -0.35567894714E+03  0.37964621271E+03  0.00000000000E+00 0. -1.
         22    1    1    2    0    0 -0.92685890525E+01  0.75361185569E+01  0.53170976253E+01  0.13075601443E+02  0.00000000000E+00 0. -1.
</event>
<event>
 6    1  0.4069520E-005  0.8171020E+02  0.7818608E-02  0.1372173E+00
          2   -1    0    0  502    0  0.00000000000E+00  0.00000000000E+00  0.24752208378E+03  0.24752208378E+03  0.00000000000E+00 0.  1.
          1   -1    0    0  501    0 -0.00000000000E+00 -0.00000000000E+00 -0.59962038687E+02  0.59962038687E+02  0.00000000000E+00 0.  1.
          2    1    1    2  501    0  0.46377899524E+02  0.18762028102E+02  0.37170761356E+02  0.62326469197E+02  0.00000000000E+00 0.  1.
          1    1    1    2  502    0 -0.47493951716E+02 -0.20577717032E+02  0.17237278159E+01  0.51788889980E+02  0.00000000000E+00 0.  1.
         22    1    1    2    0    0 -0.77359658391E-01  0.37787544017E+02 -0.26031873961E+01  0.37877183791E+02  0.00000000000E+00 0.  1.
         22    1    1    2    0    0  0.11934118495E+01 -0.35971855086E+02  0.15126874331E+03  0.15549157949E+03  0.00000000000E+00 0.  1.
</event>
<event>
 6    1  0.4069520E-005  0.1860502E+03  0.7818608E-02  0.1249527E+00
          2   -1    0    0  502    0  0.00000000000E+00  0.00000000000E+00  0.19844066361E+03  0.19844066361E+03  0.00000000000E+00 0. -1.
          1   -1    0    0  501    0 -0.00000000000E+00 -0.00000000000E+00 -0.27402865599E+03  0.27402865599E+03  0.00000000000E+00 0.  1.
          2    1    1    2  501    0  0.10262147113E+02  0.13143240433E+03  0.15351641227E+01  0.13184136415E+03  0.00000000000E+00 0. -1.
          1    1    1    2  502    0 -0.29180389584E+02 -0.15699666917E+03 -0.12925833040E+03  0.20544382503E+03  0.00000000000E+00 0.  1.
         22    1    1    2    0    0 -0.15946648321E+02  0.23373326639E+02  0.83544775744E+02  0.88206221691E+02  0.00000000000E+00 0. -1.
         22    1    1    2    0    0  0.34864890792E+02  0.21909381942E+01 -0.31409601851E+02  0.46977908729E+02  0.00000000000E+00 0. -1.
</event>
<event>
 6    1  0.4069520E-005  0.5965595E+02  0.7818608E-02  0.1414560E+00
          2   -1    0    0  502    0  0.00000000000E+00  0.00000000000E+00  0.12453351256E+03  0.12453351256E+03  0.00000000000E+00 0. -1.
          1   -1    0    0  501    0 -0.00000000000E+00 -0.00000000000E+00 -0.50225653050E+03  0.50225653050E+03  0.00000000000E+00 0.  1.
          2    1    1    2  501    0  0.96415471935E+01  0.18044379617E+02 -0.30001466451E+01  0.20677522770E+02  0.00000000000E+00 0. -1.
          1    1    1    2  502    0 -0.27535913770E+02 -0.10867878368E+02 -0.45705627214E+03  0.45801394436E+03  0.00000000000E+00 0.  1.
         22    1    1    2    0    0  0.60369625177E+02  0.84175389608E+00  0.63866242510E+01  0.60712347698E+02  0.00000000000E+00 0. -1.
         22    1    1    2    0    0 -0.42475258601E+02 -0.80182551450E+01  0.75946776594E+02  0.87386228227E+02  0.00000000000E+00 0. -1.
</event>
<event>
 6    1  0.4069520E-005  0.1671637E+03  0.7818608E-02  0.1252445E+00
          2   -1    0    0  502    0  0.00000000000E+00  0.00000000000E+00  0.67182560097E+02  0.67182560097E+02  0.00000000000E+00 0.  1.
          1   -1    0    0  501    0 -0.00000000000E+00 -0.00000000000E+00 -0.50811991726E+03  0.50811991726E+03  0.00000000000E+00 0. -1.
          2    1    1    2  501    0  0.10420808232E+02  0.24881222427E+02 -0.16023125618E+02  0.31375293277E+02  0.00000000000E+00 0.  1.
          1    1    1    2  502    0 -0.13560575777E+03 -0.72758172064E+02 -0.24546924945E+03  0.28972025399E+03  0.00000000000E+00 0. -1.
         22    1    1    2    0    0 -0.16149469364E+02  0.33071714849E+02 -0.49194776987E+02  0.61438341177E+02  0.00000000000E+00 0. -1.
         22    1    1    2    0    0  0.14133441890E+03  0.14805234788E+02 -0.13025020511E+03  0.19276858892E+03  0.00000000000E+00 0. -1.
</event>
<event>
 6    1  0.4069520E-005  0.5328117E+02  0.7818608E-02  0.1471590E+00
          2   -1    0    0  502    0  0.00000000000E+00  0.00000000000E+00  0.23940187191E+02  0.23940187191E+02  0.00000000000E+00 0.  1.
          1   -1    0    0  501    0 -0.00000000000E+00 -0.00000000000E+00 -0.54661648109E+03  0.54661648109E+03  0.00000000000E+00 0.  1.
          2    1    1    2  501    0 -0.41017468034E+00 -0.22087167683E+02 -0.48119482771E+02  0.52948048516E+02  0.00000000000E+00 0.  1.
          1    1    1    2  502    0  0.14872257717E+02  0.34947334396E+02 -0.28849616438E+03  0.29098545856E+03  0.00000000000E+00 0.  1.
         22    1    1    2    0    0 -0.34390711622E+02 -0.32805692729E+02 -0.19201182306E+03  0.19780665994E+03  0.00000000000E+00 0.  1.
         22    1    1    2    0    0  0.19928628586E+02  0.19945526016E+02  0.59511763168E+01  0.28816501261E+02  0.00000000000E+00 0.  1.
</event>
<event>
 6    1  0.4069520E-005  0.1105681E+03  0.7818608E-02  0.1271218E+00
          2   -1    0    0  502    0  0.00000000000E+00  0.00000000000E+00  0.61072323512E+03  0.61072323512E+03  0.00000000000E+00 0. -1.
          1   -1    0    0  501    0 -0.00000000000E+00 -0.00000000000E+00 -0.59476493643E+02  0.59476493643E+02  0.00000000000E+00 0. -1.
          2    1    1    2  501    0 -0.64894796262E+02 -0.24560478709E+02  0.11587194816E+03  0.13505872822E+03  0.00000000000E+00 0. -1.
          1    1    1    2  502    0  0.26199386812E+02  0.28213878151E+02 -0.32290515028E+02  0.50250454231E+02  0.00000000000E+00 0. -1.
         22    1    1    2    0    0  0.65377072939E+02  0.39221487347E+02  0.24587257629E+03  0.25742146474E+03  0.00000000000E+00 0. -1.
         22    1    1    2    0    0 -0.26681663489E+02 -0.42874886788E+02  0.22179273204E+03  0.22746908157E+03  0.00000000000E+00 0. -1.
</event>
<event>
 6    1  0.4069520E-005  0.7468648E+02  0.7818608E-02  0.1351750E+00
          2   -1    0    0  502    0  0.00000000000E+00  0.00000000000E+00  0.59570500558E+03  0.59570500558E+03  0.00000000000E+00 0. -1.
          1   -1    0    0  501    0 -0.00000000000E+00 -0.00000000000E+00 -0.60773091797E+02  0.60773091797E+02  0.00000000000E+00 0. -1.
          2    1    1    2  501    0  0.21560292624E+01  0.40086304648E+02 -0.23110556221E+02  0.46321248810E+02  0.00000000000E+00 0. -1.
          1    1    1    2  502    0 -0.29611007828E+02 -0.52372306201E+02  0.40366244380E+03  0.40812135300E+03  0.00000000000E+00 0. -1.
         22    1    1    2    0    0  0.56099008270E+02  0.31853301825E+02  0.26857379069E+02  0.69878826381E+02  0.00000000000E+00 0. -1.
         22    1    1    2    0    0 -0.28644029704E+02 -0.19567300272E+02  0.12752264713E+03  0.13215666918E+03  0.00000000000E+00 0.  1.
</event>
<event>
 6    1  0.4069520E-005  0.1631998E+03  0.7818608E-02  0.1250007E+00
          2   -1    0    0  502    0  0.00000000000E+00  0.00000000000E+00  0.12094377589E+03  0.12094377589E+03  0.00000000000E+00 0. -1.
          1   -1    0    0  501    0 -0.00000000000E+00 -0.00000000000E+00 -0.17132932210E+04  0.17132932210E+04  0.00000000000E+00 0. -1.
          2    1    1    2  501    0 -0.10922855887E+03  0.40193147801E+02 -0.69148239548E+02  0.13538037611E+03  0.00000000000E+00 0. -1.
          1    1    1    2  502    0  0.38557655386E+02  0.88079412322E+01 -0.15422624786E+04  0.15427695309E+04  0.00000000000E+00 0. -1.
         22    1    1    2    0    0  0.40193935822E+02  0.23142685082E+01  0.67919710153E+02  0.78955654280E+02  0.00000000000E+00 0. -1.
         22    1    1    2    0    0  0.30476967665E+02 -0.51315357542E+02 -0.48858437090E+02  0.77131435567E+02  0.00000000000E+00 0. -1.
</event>
<event>
 6    1  0.4069520E-005  0.3865093E+03  0.7818608E-02  0.1142057E+00
          2   -1    0    0  502    0  0.00000000000E+00  0.00000000000E+00  0.14762568158E+03  0.14762568158E+03  0.00000000000E+00 0. -1.
          1   -1    0    0  501    0 -0.00000000000E+00 -0.00000000000E+00 -0.19087371473E+04  0.19087371473E+04  0.00000000000E+00 0.  1.
          2    1    1    2  501    0  0.46778012483E+02 -0.85639904954E+02 -0.23409408984E+03  0.25361864811E+03  0.00000000000E+00 0. -1.
          1    1    1    2  502    0  0.39744847660E+02 -0.52689164301E+01 -0.16091112251E+04  0.16096106204E+04  0.00000000000E+00 0.  1.
         22    1    1    2    0    0 -0.53248757881E+02  0.91830256373E+02  0.10763730740E+03  0.15117544822E+03  0.00000000000E+00 0. -1.
         22    1    1    2    0    0 -0.33274102261E+02 -0.92143498951E+00 -0.25543458210E+02  0.41958112220E+02  0.00000000000E+00 0.  1.
</event>
<event>
 6    1  0.4069520E-005  0.2019566E+03  0.7818608E-02  0.1185236E+00
          2   -1    0    0  502    0  0.00000000000E+00  0.00000000000E+00  0.54721715925E+03  0.54721715925E+03  0.00000000000E+00 0.  1.
          1   -1    0    0  501    0 -0.00000000000E+00 -0.00000000000E+00 -0.16783051873E+03  0.16783051873E+03  0.00000000000E+00 0. -1.
          2    1    1    2  501    0  0.20025573758E+02 -0.16204932781E+02  0.45398722793E+01  0.26157864803E+02  0.00000000000E+00 0.  1.
          1    1    1    2  502    0 -0.11710625333E+03  0.16728206455E+03 -0.50975292151E+02  0.21046530379E+03  0.00000000000E+00 0. -1.
         22    1    1    2    0    0  0.15133156923E+02 -0.12526081303E+03  0.19633273368E+03  0.23337914653E+03  0.00000000000E+00 0.  1.
         22    1    1    2    0    0  0.81947522647E+02 -0.25816318735E+02  0.22948932671E+03  0.24504536285E+03  0.00000000000E+00 0. -1.
</event>
<event>
 6    1  0.4069520E-005  0.8454650E+02  0.7818608E-02  0.1356695E+00
          2   -1    0    0  502    0  0.00000000000E+00  0.00000000000E+00  0.36619955591E+02  0.36619955591E+02  0.00000000000E+00 0.  1.
          1   -1    0    0  501    0 -0.00000000000E+00 -0.00000000000E+00 -0.67660182499E+03  0.67660182499E+03  0.00000000000E+00 0.  1.
          2    1    1    2  501    0  0.29770426456E+02 -0.68754110948E+01 -0.50570308005E+02  0.59083886304E+02  0.00000000000E+00 0.  1.
          1    1    1    2  502    0 -0.67979126554E+01  0.26207002869E+02 -0.50087272357E+03  0.50160393124E+03  0.00000000000E+00 0.  1.
         22    1    1    2    0    0  0.14077483264E+02  0.43381470037E+01  0.25979996710E+02  0.29865620427E+02  0.00000000000E+00 0.  1.
         22    1    1    2    0    0 -0.37049997064E+02 -0.23669738778E+02 -0.11451883453E+03  0.12266834261E+03  0.00000000000E+00 0. -1.
</event>
<event>
 6    1  0.4069520E-005  0.2780531E+03  0.7818608E-02  0.1173668E+00
          2   -1    0    0  502    0  0.00000000000E+00  0.00000000000E+00  0.69821810322E+03  0.69821810322E+03  0.00000000000E+00 0.  1.
          1   -1    0    0  501    0 -0.00000000000E+00 -0.00000000000E+00 -0.22282821107E+03  0.22282821107E+03  0.00000000000E+00 0. -1.
          2    1    1    2  501    0  0.17267278062E+02  0.83230798249E+02  0.29507202605E+02  0.89978884603E+02  0.00000000000E+00 0.  1.
          1    1    1    2  502    0  0.26782947588E+02 -0.12720127888E+03 -0.16169099407E+03  0.20746438055E+03  0.00000000000E+00 0. -1.
         22    1    1    2    0    0  0.39484537739E+02  0.16278546257E+02  0.10451228662E+03  0.11290189477E+03  0.00000000000E+00 0. -1.
         22    1    1    2    0    0 -0.83534763389E+02  0.27691934378E+02  0.50306139699E+03  0.51070115436E+03  0.00000000000E+00 0.  1.
</event>
<event>
 6    1  0.4069520E-005  0.5856708E+03  0.7818608E-02  0.1052925E+00
          2   -1    0    0  502    0  0.00000000000E+00  0.00000000000E+00  0.51650720430E+03  0.51650720430E+03  0.00000000000E+00 0.  1.
          1   -1    0    0  501    0 -0.00000000000E+00 -0.00000000000E+00 -0.12666254179E+04  0.12666254179E+04  0.00000000000E+00 0.  1.
          2    1    1    2  501    0  0.48633244812E+03 -0.28235611624E+03  0.81920463060E+02  0.56829146460E+03  0.00000000000E+00 0.  1.
          1    1    1    2  502    0 -0.45332885735E+03  0.35364667741E+03 -0.88647146993E+03  0.10566005358E+04  0.00000000000E+00 0.  1.
         22    1    1    2    0    0  0.46948880020E+02 -0.14477821334E+02  0.28458596458E+02  0.56777604371E+02  0.00000000000E+00 0.  1.
         22    1    1    2    0    0 -0.79952470794E+02 -0.56812739834E+02  0.25974196819E+02  0.10146301737E+03  0.00000000000E+00 0.  1.
</event>
<event>
 6    1  0.4069520E-005  0.1263121E+03  0.7818608E-02  0.1270273E+00
          2   -1    0    0  502    0  0.00000000000E+00  0.00000000000E+00  0.88915163168E+02  0.88915163168E+02  0.00000000000E+00 0.  1.
          1   -1    0    0  501    0 -0.00000000000E+00 -0.00000000000E+00 -0.37491730028E+03  0.37491730028E+03  0.00000000000E+00 0.  1.
          2    1    1    2  501    0 -0.11405296951E+02  0.87973667717E+02 -0.76912475870E+02  0.11740943725E+03  0.00000000000E+00 0.  1.
          1    1    1    2  502    0  0.40800673984E+02 -0.10640350657E+03 -0.17738894345E+03  0.21083936650E+03  0.00000000000E+00 0.  1.
         22    1    1    2    0    0  0.30151006281E+02  0.26834305485E+02 -0.57412618765E+02  0.70180994037E+02  0.00000000000E+00 0. -1.
         22    1    1    2    0    0 -0.59546383314E+02 -0.84044666354E+01  0.25711900967E+02  0.65402665669E+02  0.00000000000E+00 0.  1.
</event>
<event>
 6    1  0.4069520E-005  0.1422890E+03  0.7818608E-02  0.1213470E+00
          2   -1    0    0  502    0  0.00000000000E+00  0.00000000000E+00  0.53581713535E+03  0.53581713535E+03  0.00000000000E+00 0.  1.
          1   -1    0    0  501    0 -0.00000000000E+00 -0.00000000000E+00 -0.11872023983E+04  0.11872023983E+04  0.00000000000E+00 0.  1.
          2    1    1    2  501    0  0.75263836010E+02 -0.26030813352E+02 -0.39110599148E+02  0.88723656487E+02  0.00000000000E+00 0.  1.
          1    1    1    2  502    0  0.52013720053E+01 -0.64100686268E+02 -0.11077128989E+04  0.11095782165E+04  0.00000000000E+00 0.  1.
         22    1    1    2    0    0  0.11619749711E+02 -0.14439106879E+02  0.13202332952E+02  0.22755394661E+02  0.00000000000E+00 0.  1.
         22    1    1    2    0    0 -0.92084957726E+02  0.10457060650E+03  0.48223590211E+03  0.50196226598E+03  0.00000000000E+00 0.  1.
</event>
<event>
 6    1  0.4069520E-005  0.7679283E+02  0.7818608E-02  0.1359715E+00
          2   -1    0    0  502    0  0.00000000000E+00  0.00000000000E+00  0.21893753136E+03  0.21893753136E+03  0.00000000000E+00 0. -1.
          1   -1    0    0  501    0 -0.00000000000E+00 -0.00000000000E+00 -0.85283450828E+02  0.85283450828E+02  0.00000000000E+00 0. -1.
          2    1    1    2  501    0 -0.19104093834E+02 -0.20752516716E+02 -0.33602973277E+02  0.43872464762E+02  0.00000000000E+00 0. -1.
          1    1    1    2  502    0 -0.30666113221E+02 -0.28651868562E+02  0.51352036579E+01  0.42281324350E+02  0.00000000000E+00 0. -1.
         22    1    1    2    0    0 -0.24173524296E+01  0.29483758990E+02 -0.14411784223E+02  0.32906460785E+02  0.00000000000E+00 0. -1.
         22    1    1    2    0    0  0.52187559484E+02  0.19920626289E+02  0.17653363437E+03  0.18516073229E+03  0.00000000000E+00 0. -1.
</event>
<event>
 6    1  0.4069520E-005  0.1397511E+03  0.7818608E-02  0.1232160E+00
          2   -1    0    0  502    0  0.00000000000E+00  0.00000000000E+00  0.15088179103E+03  0.15088179103E+03  0.00000000000E+00 0. -1.
          1   -1    0    0  501    0 -0.00000000000E+00 -0.00000000000E+00 -0.75857057516E+03  0.75857057516E+03  0.00000000000E+00 0. -1.
          2    1    1    2  501    0 -0.76556026193E+02  0.19520859310E+02 -0.15794707380E+03  0.17660455038E+03  0.00000000000E+00 0. -1.
          1    1    1    2  502    0  0.14191848923E+03 -0.11903803842E+03 -0.51647310766E+03  0.54868514023E+03  0.00000000000E+00 0. -1.
         22    1    1    2    0    0 -0.52484441182E+02  0.79128005915E+02  0.10333106811E+03  0.14033234667E+03  0.00000000000E+00 0. -1.
         22    1    1    2    0    0 -0.12878021850E+02  0.20389173190E+02 -0.36599670780E+02  0.43830328898E+02  0.00000000000E+00 0. -1.
</event>
<event>
 6    1  0.4069520E-005  0.1142790E+03  0.7818608E-02  0.1332882E+00
          2   -1    0    0  502    0  0.00000000000E+00  0.00000000000E+00  0.30442703690E+03  0.30442703690E+03  0.00000000000E+00 0. -1.
          1   -1    0    0  501    0 -0.00000000000E+00 -0.00000000000E+00 -0.55463017285E+02  0.55463017285E+02  0.00000000000E+00 0.  1.
          2    1    1    2  501    0  0.66937055570E+02 -0.66050707034E+01  0.83721983973E+02  0.10739444570E+03  0.00000000000E+00 0. -1.
          1    1    1    2  502    0 -0.62928249351E+02 -0.68868686004E+00  0.30073868875E+02  0.69748666260E+02  0.00000000000E+00 0.  1.
         22    1    1    2    0    0 -0.13450236773E+01  0.25623305517E+02  0.15412343845E+03  0.15624467081E+03  0.00000000000E+00 0. -1.
         22    1    1    2    0    0 -0.26637825418E+01 -0.18329547954E+02 -0.18955271686E+02  0.26502271418E+02  0.00000000000E+00 0.  1.
</event>
<event>
 6    1  0.4069520E-005  0.6374842E+02  0.7818608E-02  0.1389488E+00
          2   -1    0    0  502    0  0.00000000000E+00  0.00000000000E+00  0.26652860369E+03  0.26652860369E+03  0.00000000000E+00 0. -1.
          1   -1    0    0  501    0 -0.00000000000E+00 -0.00000000000E+00 -0.26733806016E+03  0.26733806016E+03  0.00000000000E+00 0. -1.
          2    1    1    2  501    0  0.83521745680E+00 -0.36017180568E+02  0.24187735264E+01  0.36107967952E+02  0.00000000000E+00 0. -1.
          1    1    1    2  502    0 -0.38530660503E+02  0.22893701955E+02 -0.23087505909E+03  0.23518508945E+03  0.00000000000E+00 0. -1.
         22    1    1    2    0    0 -0.17084991971E+02 -0.11063694320E+02 -0.61233506202E+01  0.21255533526E+02  0.00000000000E+00 0. -1.
         22    1    1    2    0    0  0.54780435017E+02  0.24187172932E+02  0.23377017972E+03  0.24131807293E+03  0.00000000000E+00 0. -1.
</event>
<event>
 6    1  0.4069520E-005  0.6346718E+02  0.7818608E-02  0.1385978E+00
          2   -1    0    0  502    0  0.00000000000E+00  0.00000000000E+00  0.99873566484E+02  0.99873566484E+02  0.00000000000E+00 0.  1.
          1   -1    0    0  501    0 -0.00000000000E+00 -0.00000000000E+00 -0.20599454586E+03  0.20599454586E+03  0.00000000000E+00 0.  1.
          2    1    1    2  501    0  0.44615305500E+02  0.14224456735E+02  0.60656614697E+02  0.76629534520E+02  0.00000000000E+00 0.  1.
          1    1    1    2  502    0 -0.22107205045E+02 -0.26752677920E+01 -0.63900265399E+02  0.67669265481E+02  0.00000000000E+00 0.  1.
         22    1    1    2    0    0  0.11658520558E+02  0.14038013223E+02  0.22590057921E+02  0.29039587355E+02  0.00000000000E+00 0. -1.
         22    1    1    2    0    0 -0.34166621013E+02 -0.25587202166E+02 -0.12546738660E+03  0.13252972499E+03  0.00000000000E+00 0. -1.
</event>
<event>
 6    1  0.4069520E-005  0.1710807E+03  0.7818608E-02  0.1308356E+00
          2   -1    0    0  502    0  0.00000000000E+00  0.00000000000E+00  0.67423344780E+02  0.67423344780E+02  0.00000000000E+00 0. -1.
          1   -1    0    0  501    0 -0.00000000000E+00 -0.00000000000E+00 -0.12955505474E+04  0.12955505474E+04  0.00000000000E+00 0. -1.
          2    1    1    2  501    0  0.79134372955E+02  0.23620050520E+02 -0.21087750576E+03  0.22647180444E+03  0.00000000000E+00 0. -1.
          1    1    1    2  502    0 -0.14724311023E+03  0.30707871739E+02 -0.95747685395E+03  0.96921898080E+03  0.00000000000E+00 0. -1.
         22    1    1    2    0    0  0.88299045597E+01 -0.79013835203E+01  0.40323654862E+02  0.42028516718E+02  0.00000000000E+00 0.  1.
         22    1    1    2    0    0  0.59278832714E+02 -0.46426538739E+02 -0.10009649780E+03  0.12525459025E+03  0.00000000000E+00 0. -1.
</event>
<event>
 6    1  0.4069520E-005  0.1138716E+03  0.7818608E-02  0.1293513E+00
          2   -1    0    0  502    0  0.00000000000E+00  0.00000000000E+00  0.21919285357E+03  0.21919285357E+03  0.00000000000E+00 0.  1.
          1   -1    0    0  501    0 -0.00000000000E+00 -0.00000000000E+00 -0.16238138286E+03  0.16238138286E+03  0.00000000000E+00 0.  1.
          2    1    1    2  501    0 -0.10256910762E+03 -0.28251510451E+01  0.35690397504E+02  0.10863796662E+03  0.00000000000E+00 0.  1.
          1    1    1    2  502    0  0.91998302000E+02  0.28255637355E+01 -0.70685216943E+02  0.11605201970E+03  0.00000000000E+00 0.  1.
         22    1    1    2    0    0 -0.37216127465E+02  0.22477593823E+02 -0.77744563170E+01  0.44167007354E+02  0.00000000000E+00 0.  1.
         22    1    1    2    0    0  0.47786933086E+02 -0.22478006514E+02  0.99580746464E+02  0.11271724277E+03  0.00000000000E+00 0.  1.
</event>
<event>
 6    1  0.4069520E-005  0.8771479E+02  0.7818608E-02  0.1343007E+00
          2   -1    0    0  502    0  0.00000000000E+00  0.00000000000E+00  0.87189294889E+02  0.87189294889E+02  0.00000000000E+00 0. -1.
          1   -1    0    0  501    0 -0.00000000000E+00 -0.00000000000E+00 -0.16933029187E+03  0.16933029187E+03  0.00000000000E+00 0. -1.
          2    1    1    2  501    0 -0.28022786568E+02  0.78880676667E+01 -0.57745159739E+02  0.64668397628E+02  0.00000000000E+00 0. -1.
          1    1    1    2  502    0  0.54965164699E+02 -0.17785880507E+01  0.10539286586E+02  0.55994725355E+02  0.00000000000E+00 0. -1.
         22    1    1    2    0    0  0.37889100551E+02 -0.28791725519E+02  0.16154123324E+02  0.50254383882E+02  0.00000000000E+00 0. -1.
         22    1    1    2    0    0 -0.64831478683E+02  0.22682245903E+02 -0.51089247149E+02  0.85602079891E+02  0.00000000000E+00 0. -1.
</event>
<event>
 6    1  0.4069520E-005  0.1266458E+03  0.7818608E-02  0.1298535E+00
          2   -1    0    0  502    0  0.00000000000E+00  0.00000000000E+00  0.34016403053E+02  0.34016403053E+02  0.00000000000E+00 0.  1.
          1   -1    0    0  501    0 -0.00000000000E+00 -0.00000000000E+00 -0.23185271461E+04  0.23185271461E+04  0.00000000000E+00 0.  1.
          2    1    1    2  501    0  0.58353292235E+02  0.36108985524E+02 -0.12051363225E+03  0.13868129329E+03  0.00000000000E+00 0.  1.
          1    1    1    2  502    0 -0.98343433453E+02 -0.31386583374E+00 -0.20039554633E+04  0.20063671220E+04  0.00000000000E+00 0.  1.
         22    1    1    2    0    0  0.64323678287E+02 -0.10677208485E+02 -0.28106369237E+02  0.71003565834E+02  0.00000000000E+00 0.  1.
         22    1    1    2    0    0 -0.24333537069E+02 -0.25117911206E+02 -0.13193527828E+03  0.13649156804E+03  0.00000000000E+00 0.  1.
</event>
<event>
 6    1  0.4069520E-005  0.3862408E+02  0.7818608E-02  0.1525783E+00
          2   -1    0    0  502    0  0.00000000000E+00  0.00000000000E+00  0.63513559928E+02  0.63513559928E+02  0.00000000000E+00 0. -1.
          1   -1    0    0  501    0 -0.00000000000E+00 -0.00000000000E+00 -0.16337958696E+03  0.16337958696E+03  0.00000000000E+00 0.  1.
          2    1    1    2  501    0 -0.21176414239E+02 -0.15606332559E+02  0.16053661183E+01  0.26354797217E+02  0.00000000000E+00 0. -1.
          1    1    1    2  502    0  0.16164478516E+02 -0.16889206404E+02 -0.66149647169E+02  0.70159186706E+02  0.00000000000E+00 0.  1.
         22    1    1    2    0    0  0.97030561922E+00 -0.13506272851E+02 -0.70838822840E+02  0.72121423451E+02  0.00000000000E+00 0.  1.
         22    1    1    2    0    0  0.40416301044E+01  0.46001811814E+02  0.35517076862E+02  0.58257739511E+02  0.00000000000E+00 0. -1.
</event>
<event>
 6    1  0.4069520E-005  0.1705701E+03  0.7818608E-02  0.1247494E+00
          2   -1    0    0  502    0  0.00000000000E+00  0.00000000000E+00  0.87454383684E+03  0.87454383684E+03  0.00000000000E+00 0.  1.
          1   -1    0    0  501    0 -0.00000000000E+00 -0.00000000000E+00 -0.13858319508E+03  0.13858319508E+03  0.00000000000E+00 0. -1.
          2    1    1    2  501    0  0.78750184677E+02 -0.15029437733E+03  0.67620727973E+03  0.69717019199E+03  0.00000000000E+00 0.  1.
          1    1    1    2  502    0 -0.87830107096E+02  0.14020131275E+03 -0.20676287932E+02  0.16672745632E+03  0.00000000000E+00 0. -1.
         22    1    1    2    0    0  0.82659041147E+01  0.37340490077E+02 -0.21392829417E+02  0.43821119572E+02  0.00000000000E+00 0.  1.
         22    1    1    2    0    0  0.81401830434E+00 -0.27247425488E+02  0.10182247937E+03  0.10540826404E+03  0.00000000000E+00 0. -1.
</event>
<event>
 6    1  0.4069520E-005  0.2364639E+03  0.7818608E-02  0.1220487E+00
          2   -1    0    0  502    0  0.00000000000E+00  0.00000000000E+00  0.16994543247E+03  0.16994543247E+03  0.00000000000E+00 0. -1.
          1   -1    0    0  501    0 -0.00000000000E+00 -0.00000000000E+00 -0.45011927551E+03  0.45011927551E+03  0.00000000000E+00 0. -1.
          2    1    1    2  501    0 -0.11317374597E+03 -0.11748005409E+03 -0.18721321629E+03  0.24831159506E+03  0.00000000000E+00 0. -1.
          1    1    1    2  502    0  0.47881746125E+02  0.17795386141E+03  0.16930316698E+02  0.18505910955E+03  0.00000000000E+00 0. -1.
         22    1    1    2    0    0  0.14807699460E+02 -0.20118685042E+02  0.26098681862E+02  0.36127145556E+02  0.00000000000E+00 0.  1.
         22    1    1    2    0    0  0.50484300388E+02 -0.40355122281E+02 -0.13598962531E+03  0.15056685782E+03  0.00000000000E+00 0. -1.
</event>
<event>
 6    1  0.4069520E-005  0.4682444E+02  0.7818608E-02  0.1521630E+00
          2   -1    0    0  502    0  0.00000000000E+00  0.00000000000E+00  0.15055616213E+03  0.15055616213E+03  0.00000000000E+00 0. -1.
          1   -1    0    0  501    0 -0.00000000000E+00 -0.00000000000E+00 -0.25396908430E+03  0.25396908430E+03  0.00000000000E+00 0. -1.
          2    1    1    2  501    0  0.12236382725E+02 -0.17639359175E+02 -0.12603596860E+02  0.24894310758E+02  0.00000000000E+00 0. -1.
          1    1    1    2  502    0  0.42378373097E+00  0.36971711033E+02 -0.20697145418E+03  0.21024811499E+03  0.00000000000E+00 0. -1.
         22    1    1    2    0    0 -0.10406422889E+02 -0.40023565939E+02 -0.91495548999E+01  0.42354383748E+02  0.00000000000E+00 0. -1.
         22    1    1    2    0    0 -0.22537435668E+01  0.20691214081E+02  0.12531168377E+03  0.12702843694E+03  0.00000000000E+00 0. -1.
</event>
<event>
 6    1  0.4069520E-005  0.1200398E+03  0.7818608E-02  0.1263453E+00
          2   -1    0    0  502    0  0.00000000000E+00  0.00000000000E+00  0.33891621097E+02  0.33891621097E+02  0.00000000000E+00 0.  1.
          1   -1    0    0  501    0 -0.00000000000E+00 -0.00000000000E+00 -0.10583563419E+04  0.10583563419E+04  0.00000000000E+00 0.  1.
          2    1    1    2  501    0 -0.68315642860E+02  0.23804736017E+02 -0.19364947147E+03  0.20672157680E+03  0.00000000000E+00 0.  1.
          1    1    1    2  502    0  0.97134477832E+02  0.43524262746E+02 -0.62708018065E+03  0.63604954304E+03  0.00000000000E+00 0.  1.
         22    1    1    2    0    0  0.33394475180E+02 -0.72691474329E+02 -0.13222565585E+03  0.15454082139E+03  0.00000000000E+00 0.  1.
         22    1    1    2    0    0 -0.62213310152E+02  0.53624755663E+01 -0.71509412838E+02  0.94936021766E+02  0.00000000000E+00 0. -1.
</event>
<event>
 6    1  0.4069520E-005  0.3200133E+03  0.7818608E-02  0.1191546E+00
          2   -1    0    0  502    0  0.00000000000E+00  0.00000000000E+00  0.22204587967E+03  0.22204587967E+03  0.00000000000E+00 0.  1.
          1   -1    0    0  501    0 -0.00000000000E+00 -0.00000000000E+00 -0.20364444208E+03  0.20364444208E+03  0.00000000000E+00 0. -1.
          2    1    1    2  501    0  0.62069225357E+02 -0.67421503292E+02 -0.12116185621E+03  0.15191590846E+03  0.00000000000E+00 0.  1.
          1    1    1    2  502    0  0.20534573383E+02 -0.28908057114E+02 -0.16404571400E+02  0.39069866047E+02  0.00000000000E+00 0. -1.
         22    1    1    2    0    0  0.10533419358E+01 -0.18748061888E+02  0.60557924263E+02  0.63402378069E+02  0.00000000000E+00 0. -1.
         22    1    1    2    0    0 -0.83657140675E+02  0.11507762229E+03  0.95409940931E+02  0.17130216918E+03  0.00000000000E+00 0.  1.
</event>
<event>
 6    1  0.4069520E-005  0.7265428E+02  0.7818608E-02  0.1391565E+00
          2   -1    0    0  502    0  0.00000000000E+00  0.00000000000E+00  0.70092914278E+02  0.70092914278E+02  0.00000000000E+00 0.  1.
          1   -1    0    0  501    0 -0.00000000000E+00 -0.00000000000E+00 -0.57186315869E+03  0.57186315869E+03  0.00000000000E+00 0. -1.
          2    1    1    2  501    0  0.52779007810E+02 -0.69296441233E+01 -0.99011368113E+02  0.11241394330E+03  0.00000000000E+00 0.  1.
          1    1    1    2  502    0 -0.64081636734E+02  0.38888431565E+01 -0.39558936522E+03  0.40076492504E+03  0.00000000000E+00 0. -1.
         22    1    1    2    0    0  0.45522985358E+02 -0.11918140905E+02 -0.52196724207E+02  0.70277181905E+02  0.00000000000E+00 0.  1.
         22    1    1    2    0    0 -0.34220356434E+02  0.14958941872E+02  0.45027213127E+02  0.58500022721E+02  0.00000000000E+00 0.  1.
</event>
<event>
 6    1  0.4069520E-005  0.1352449E+03  0.7818608E-02  0.1222568E+00
          2   -1    0    0  502    0  0.00000000000E+00  0.00000000000E+00  0.43978242340E+03  0.43978242340E+03  0.00000000000E+00 0.  1.
          1   -1    0    0  501    0 -0.00000000000E+00 -0.00000000000E+00 -0.44561285723E+03  0.44561285723E+03  0.00000000000E+00 0. -1.
          2    1    1    2  501    0  0.79579332350E+02 -0.15266415129E+03  0.43915293561E+02  0.17767320067E+03  0.00000000000E+00 0.  1.
          1    1    1    2  502    0 -0.76871759777E+02  0.58988237428E+02 -0.35397138947E+03  0.36699403833E+03  0.00000000000E+00 0. -1.
         22    1    1    2    0    0 -0.21838181224E+02  0.11535343509E+03  0.27767640300E+03  0.30147554781E+03  0.00000000000E+00 0.  1.
         22    1    1    2    0    0  0.19130608652E+02 -0.21677521230E+02  0.26549259074E+02  0.39252493824E+02  0.00000000000E+00 0. -1.
</event>
<event>
 6    1  0.4069520E-005  0.6461638E+02  0.7818608E-02  0.1441251E+00
          2   -1    0    0  502    0  0.00000000000E+00  0.00000000000E+00  0.24782750406E+02  0.24782750406E+02  0.00000000000E+00 0. -1.
          1   -1    0    0  501    0 -0.00000000000E+00 -0.00000000000E+00 -0.29579865391E+04  0.29579865391E+04  0.00000000000E+00 0. -1.
          2    1    1    2  501    0 -0.15761929629E+01  0.44880699634E+02 -0.27067926020E+03  0.27437934231E+03  0.00000000000E+00 0. -1.
          1    1    1    2  502    0  0.20803337761E+02 -0.49370446009E+02 -0.25101098012E+04  0.25106814681E+04  0.00000000000E+00 0. -1.
         22    1    1    2    0    0  0.81220558744E+01 -0.23240948809E+02  0.12951001315E+02  0.27817942559E+02  0.00000000000E+00 0. -1.
         22    1    1    2    0    0 -0.27349200673E+02  0.27730695184E+02 -0.16536572862E+03  0.16989053662E+03  0.00000000000E+00 0. -1.
</event>
<event>
 6    1  0.4069520E-005  0.6921493E+02  0.7818608E-02  0.1365007E+00
          2   -1    0    0  502    0  0.00000000000E+00  0.00000000000E+00  0.79870387932E+02  0.79870387932E+02  0.00000000000E+00 0.  1.
          1   -1    0    0  501    0 -0.00000000000E+00 -0.00000000000E+00 -0.55864860770E+03  0.55864860770E+03  0.00000000000E+00 0.  1.
          2    1    1    2  501    0 -0.49926940378E+02 -0.54971974905E+01 -0.10172763901E+03  0.11345232961E+03  0.00000000000E+00 0.  1.
          1    1    1    2  502    0  0.24943829240E+02  0.42584129840E+02 -0.39188263484E+03  0.39497797688E+03  0.00000000000E+00 0.  1.
         22    1    1    2    0    0  0.51156823705E+02 -0.43880425453E+02  0.51291767800E+02  0.84695677537E+02  0.00000000000E+00 0.  1.
         22    1    1    2    0    0 -0.26173712566E+02  0.67934931033E+01 -0.36459713724E+02  0.45393011608E+02  0.00000000000E+00 0. -1.
</event>
<event>
 6    1  0.4069520E-005  0.9782992E+02  0.7818608E-02  0.1318877E+00
          2   -1    0    0  502    0  0.00000000000E+00  0.00000000000E+00  0.23626532872E+03  0.23626532872E+03  0.00000000000E+00 0.  1.
          1   -1    0    0  501    0 -0.00000000000E+00 -0.00000000000E+00 -0.24418382428E+03  0.24418382428E+03  0.00000000000E+00 0. -1.
          2    1    1    2  501    0  0.59904801260E+02 -0.15159611698E+02  0.35488408915E+02  0.71258867576E+02  0.00000000000E+00 0.  1.
          1    1    1    2  502    0 -0.74081441273E+02  0.31893070449E+02 -0.19694836438E+03  0.21282360329E+03  0.00000000000E+00 0. -1.
         22    1    1    2    0    0 -0.15889469815E+02 -0.49942863356E+02  0.14012136463E+03  0.14960201094E+03  0.00000000000E+00 0.  1.
         22    1    1    2    0    0  0.30066109827E+02  0.33209404605E+02  0.13420095273E+02  0.46764671190E+02  0.00000000000E+00 0.  1.
</event>
<event>
 6    1  0.4069520E-005  0.2298058E+03  0.7818608E-02  0.1177369E+00
          2   -1    0    0  502    0  0.00000000000E+00  0.00000000000E+00  0.25208557168E+03  0.25208557168E+03  0.00000000000E+00 0. -1.
          1   -1    0    0  501    0 -0.00000000000E+00 -0.00000000000E+00 -0.41039539417E+03  0.41039539417E+03  0.00000000000E+00 0.  1.
          2    1    1    2  501    0 -0.42173001800E+02  0.27438577265E+02 -0.11748971920E+03  0.12780951342E+03  0.00000000000E+00 0. -1.
          1    1    1    2  502    0  0.74649990759E+02 -0.21662965377E+02 -0.26534984346E+03  0.27650035192E+03  0.00000000000E+00 0.  1.
         22    1    1    2    0    0 -0.36088049817E+01  0.57519997599E+02  0.94049357560E+02  0.11030346892E+03  0.00000000000E+00 0.  1.
         22    1    1    2    0    0 -0.28868183977E+02 -0.63295609487E+02  0.13048038261E+03  0.14786763159E+03  0.00000000000E+00 0. -1.
</event>
<event>
 6    1  0.4069520E-005  0.7362724E+02  0.7818608E-02  0.1350850E+00
          2   -1    0    0  502    0  0.00000000000E+00  0.00000000000E+00  0.62277367341E+02  0.62277367341E+02  0.00000000000E+00 0. -1.
          1   -1    0    0  501    0 -0.00000000000E+00 -0.00000000000E+00 -0.14362649713E+03  0.14362649713E+03  0.00000000000E+00 0. -1.
          2    1    1    2  501    0  0.26554636550E+02  0.24046321607E+01 -0.15573436896E+02  0.30878194812E+02  0.00000000000E+00 0. -1.
          1    1    1    2  502    0 -0.14187035607E+02  0.20289210720E+02  0.94944179622E+01  0.26515429912E+02  0.00000000000E+00 0. -1.
         22    1    1    2    0    0  0.48084868135E+02 -0.39196726206E+00  0.17163210520E+01  0.48117085738E+02  0.00000000000E+00 0. -1.
         22    1    1    2    0    0 -0.60452469078E+02 -0.22301875619E+02 -0.76986431904E+02  0.10039315400E+03  0.00000000000E+00 0. -1.
</event>
<event>
 6    1  0.4069520E-005  0.6204229E+02  0.7818608E-02  0.1446481E+00
          2   -1    0    0  502    0  0.00000000000E+00  0.00000000000E+00  0.95412079972E+02  0.95412079972E+02  0.00000000000E+00 0.  1.
          1   -1    0    0  501    0 -0.00000000000E+00 -0.00000000000E+00 -0.14677398028E+03  0.14677398028E+03  0.00000000000E+00 0.  1.
          2    1    1    2  501    0  0.12947816617E+02 -0.29915488652E+02 -0.66472825043E+02  0.74035254343E+02  0.00000000000E+00 0.  1.
          1    1    1    2  502    0  0.21518502412E+02  0.26953008997E+02  0.12698334369E+02  0.36752664336E+02  0.00000000000E+00 0.  1.
         22    1    1    2    0    0 -0.87620997677E+01  0.24194630909E+02  0.59759543566E+02  0.65064257502E+02  0.00000000000E+00 0.  1.
         22    1    1    2    0    0 -0.25704219262E+02 -0.21232151253E+02 -0.57346953205E+02  0.66333884075E+02  0.00000000000E+00 0.  1.
</event>
<event>
 6    1  0.4069520E-005  0.1664069E+03  0.7818608E-02  0.1262871E+00
          2   -1    0    0  502    0  0.00000000000E+00  0.00000000000E+00  0.39274417413E+03  0.39274417413E+03  0.00000000000E+00 0. -1.
          1   -1    0    0  501    0 -0.00000000000E+00 -0.00000000000E+00 -0.11138985184E+03  0.11138985184E+03  0.00000000000E+00 0. -1.
          2    1    1    2  501    0  0.55751406701E+02  0.44325998736E+02  0.11657503710E+02  0.72172785078E+02  0.00000000000E+00 0. -1.
          1    1    1    2  502    0 -0.14485589967E+03 -0.97400221179E+02  0.16849382564E+03  0.24261121992E+03  0.00000000000E+00 0. -1.
         22    1    1    2    0    0  0.87710681807E+02  0.22734629717E+02  0.75820608836E+01  0.90925874968E+02  0.00000000000E+00 0. -1.
         22    1    1    2    0    0  0.13938111620E+01  0.30339592725E+02  0.93620932061E+02  0.98424146002E+02  0.00000000000E+00 0. -1.
</event>
<event>
 6    1  0.4069520E-005  0.9078893E+02  0.7818608E-02  0.1305888E+00
          2   -1    0    0  502    0  0.00000000000E+00  0.00000000000E+00  0.16227353843E+03  0.16227353843E+03  0.00000000000E+00 0.  1.
          1   -1    0    0  501    0 -0.00000000000E+00 -0.00000000000E+00 -0.20911140387E+04  0.20911140387E+04  0.00000000000E+00 0.  1.
          2    1    1    2  501    0  0.47199885438E+02 -0.11330538504E+02  0.27365779464E+02  0.55723389827E+02  0.00000000000E+00 0.  1.
          1    1    1    2  502    0 -0.80341868534E+01  0.40029586074E+02 -0.20372569793E+04  0.20376660461E+04  0.00000000000E+00 0.  1.
         22    1    1    2    0    0 -0.76239318104E+02 -0.86923909896E+01  0.99794126447E+01  0.77379454397E+02  0.00000000000E+00 0.  1.
         22    1    1    2    0    0  0.37073619520E+02 -0.20006656581E+02  0.71071286942E+02  0.82618686744E+02  0.00000000000E+00 0.  1.
</event>
<event>
 6    1  0.4069520E-005  0.1884891E+03  0.7818608E-02  0.1229753E+00
          2   -1    0    0  502    0  0.00000000000E+00  0.00000000000E+00  0.14245381572E+03  0.14245381572E+03  0.00000000000E+00 0.  1.
          1   -1    0    0  501    0 -0.00000000000E+00 -0.00000000000E+00 -0.15756520589E+04  0.15756520589E+04  0.00000000000E+00 0. -1.
          2    1    1    2  501    0  0.55953713438E+02 -0.28086043118E+02 -0.38515646456E+02  0.73505774518E+02  0.00000000000E+00 0.  1.
          1    1    1    2  502    0 -0.94762724741E+01  0.20653368755E+02 -0.14824424813E+04  0.14826166301E+04  0.00000000000E+00 0. -1.
         22    1    1    2    0    0  0.42320487973E+02 -0.50029807336E+01  0.11154469004E+02  0.44050830835E+02  0.00000000000E+00 0.  1.
         22    1    1    2    0    0 -0.88797928936E+02  0.12435655096E+02  0.76605415556E+02  0.11793263922E+03  0.00000000000E+00 0.  1.
</event>
<event>
 6    1  0.4069520E-005  0.2895346E+03  0.7818608E-02  0.1213856E+00
          2   -1    0    0  502    0  0.00000000000E+00  0.00000000000E+00  0.46008562975E+03  0.46008562975E+03  0.00000000000E+00 0. -1.
          1   -1    0    0  501    0 -0.00000000000E+00 -0.00000000000E+00 -0.71065037631E+03  0.71065037631E+03  0.00000000000E+00 0. -1.
          2    1    1    2  501    0 -0.35152702738E+02  0.87943353200E+01 -0.67750951287E+01  0.36864003547E+02  0.00000000000E+00 0. -1.
          1    1    1    2  502    0  0.16547251665E+03  0.16453957108E+03 -0.63115523104E+03  0.67291258710E+03  0.00000000000E+00 0. -1.
         22    1    1    2    0    0  0.59760368689E+01  0.14465484000E+02  0.42537126175E+02  0.45325162407E+02  0.00000000000E+00 0. -1.
         22    1    1    2    0    0 -0.13629585078E+03 -0.18779939040E+03  0.34482845343E+03  0.41563425301E+03  0.00000000000E+00 0. -1.
</event>
<event>
 6    1  0.4069520E-005  0.7917759E+02  0.7818608E-02  0.1443363E+00
          2   -1    0    0  502    0  0.00000000000E+00  0.00000000000E+00  0.78386961102E+02  0.78386961102E+02  0.00000000000E+00 0.  1.
          1   -1    0    0  501    0 -0.00000000000E+00 -0.00000000000E+00 -0.27354361846E+03  0.27354361846E+03  0.00000000000E+00 0.  1.
          2    1    1    2  501    0 -0.21252796445E+02  0.16343282105E+02 -0.19921610492E+03  0.20101204115E+03  0.00000000000E+00 0.  1.
          1    1    1    2  502    0 -0.20652319156E+02 -0.11167303796E+02  0.22043172350E+00  0.23479257883E+02  0.00000000000E+00 0.  1.
         22    1    1    2    0    0  0.68046032447E+01 -0.11037987319E+02  0.59762576355E+02  0.61153130108E+02  0.00000000000E+00 0.  1.
         22    1    1    2    0    0  0.35100512356E+02  0.58620090098E+01 -0.55923560520E+02  0.66286150428E+02  0.00000000000E+00 0.  1.
</event>
<event>
 6    1  0.4069520E-005  0.7629161E+02  0.7818608E-02  0.1356195E+00
          2   -1    0    0  502    0  0.00000000000E+00  0.00000000000E+00  0.35766796364E+03  0.35766796364E+03  0.00000000000E+00 0. -1.
          1   -1    0    0  501    0 -0.00000000000E+00 -0.00000000000E+00 -0.14738475582E+03  0.14738475582E+03  0.00000000000E+00 0. -1.
          2    1    1    2  501    0 -0.21620418359E+02 -0.76142935917E+01  0.40022524549E+02  0.46121821605E+02  0.00000000000E+00 0. -1.
          1    1    1    2  502    0  0.26946794234E+02  0.19897525198E+02 -0.12891503164E+03  0.13319582054E+03  0.00000000000E+00 0. -1.
         22    1    1    2    0    0  0.27625379167E+02 -0.48823036697E+02  0.62431159795E+02  0.83931520896E+02  0.00000000000E+00 0. -1.
         22    1    1    2    0    0 -0.32951755043E+02  0.36539805090E+02  0.23674455511E+03  0.24180355641E+03  0.00000000000E+00 0.  1.
</event>
<event>
 6    1  0.4069520E-005  0.9429704E+03  0.7818608E-02  0.1080457E+00
          2   -1    0    0  502    0  0.00000000000E+00  0.00000000000E+00  0.40303336621E+03  0.40303336621E+03  0.00000000000E+00 0.  1.
          1   -1    0    0  501    0 -0.00000000000E+00 -0.00000000000E+00 -0.16148291881E+04  0.16148291881E+04  0.00000000000E+00 0.  1.
          2    1    1    2  501    0 -0.22803047911E+03 -0.39428985298E+03 -0.38209852812E+03  0.59452642730E+03  0.00000000000E+00 0.  1.
          1    1    1    2  502    0  0.59880620634E+02  0.13303841406E+03 -0.10253517190E+04  0.10356790314E+04  0.00000000000E+00 0.  1.
         22    1    1    2    0    0 -0.73898739660E+01 -0.81229015000E+01  0.15823511975E+02  0.19260719022E+02  0.00000000000E+00 0. -1.
         22    1    1    2    0    0  0.17553973244E+03  0.26937434042E+03  0.17983091326E+03  0.36839637662E+03  0.00000000000E+00 0.  1.
</event>
<event>
 6    1  0.4069520E-005  0.1105744E+03  0.7818608E-02  0.1261508E+00
          2   -1    0    0  502    0  0.00000000000E+00  0.00000000000E+00  0.50771685054E+02  0.50771685054E+02  0.00000000000E+00 0.  1.
          1   -1    0    0  501    0 -0.00000000000E+00 -0.00000000000E+00 -0.12154862770E+04  0.12154862770E+04  0.00000000000E+00 0.  1.
          2    1    1    2  501    0 -0.14408598745E+02 -0.78196481720E+02 -0.40662180192E+02  0.89306832713E+02  0.00000000000E+00 0.  1.
          1    1    1    2  502    0  0.32291039391E+01  0.21257861073E+02 -0.97986283160E+03  0.98009871571E+03  0.00000000000E+00 0.  1.
         22    1    1    2    0    0  0.31631946934E+02  0.89827676210E+02 -0.10495825085E+03  0.14172447178E+03  0.00000000000E+00 0. -1.
         22    1    1    2    0    0 -0.20452452128E+02 -0.32889055563E+02 -0.39231329286E+02  0.55127941839E+02  0.00000000000E+00 0.  1.
</event>
<event>
 6    1  0.4069520E-005  0.9313044E+02  0.7818608E-02  0.1311587E+00
          2   -1    0    0  502    0  0.00000000000E+00  0.00000000000E+00  0.37808421754E+03  0.37808421754E+03  0.00000000000E+00 0. -1.
          1   -1    0    0  501    0 -0.00000000000E+00 -0.00000000000E+00 -0.13324803812E+03  0.13324803812E+03  0.00000000000E+00 0.  1.
          2    1    1    2  501    0  0.41998034797E+01  0.45300913498E+02  0.94512627556E+02  0.10489255398E+03  0.00000000000E+00 0. -1.
          1    1    1    2  502    0 -0.37280501634E+02 -0.77613647179E+02 -0.94087401859E+02  0.12753883024E+03  0.00000000000E+00 0.  1.
         22    1    1    2    0    0  0.65631334258E+02 -0.22153310955E+02  0.14904128707E+03  0.16435189829E+03  0.00000000000E+00 0. -1.
         22    1    1    2    0    0 -0.32550636103E+02  0.54466044635E+02  0.95369666660E+02  0.11454897314E+03  0.00000000000E+00 0. -1.
</event>
<event>
 6    1  0.4069520E-005  0.1289617E+03  0.7818608E-02  0.1279470E+00
          2   -1    0    0  502    0  0.00000000000E+00  0.00000000000E+00  0.93787900901E+02  0.93787900901E+02  0.00000000000E+00 0. -1.
          1   -1    0    0  501    0 -0.00000000000E+00 -0.00000000000E+00 -0.11245255318E+04  0.11245255318E+04  0.00000000000E+00 0. -1.
          2    1    1    2  501    0 -0.45432005383E+02  0.64754098699E+00 -0.42438018255E+02  0.62172918670E+02  0.00000000000E+00 0. -1.
          1    1    1    2  502    0  0.39147326659E+02  0.72867314634E+02 -0.10060583551E+04  0.10094531057E+04  0.00000000000E+00 0. -1.
         22    1    1    2    0    0  0.44244452254E+02  0.16903974657E+02  0.92185314209E+01  0.48252432436E+02  0.00000000000E+00 0.  1.
         22    1    1    2    0    0 -0.37959773530E+02 -0.90418830278E+02  0.85402110414E+01  0.98434975897E+02  0.00000000000E+00 0.  1.
</event>
<event>
 6    1  0.4069520E-005  0.3777138E+02  0.7818608E-02  0.1588098E+00
          2   -1    0    0  502    0  0.00000000000E+00  0.00000000000E+00  0.35607455332E+02  0.35607455332E+02  0.00000000000E+00 0.  1.
          1   -1    0    0  501    0 -0.00000000000E+00 -0.00000000000E+00 -0.17282117972E+04  0.17282117972E+04  0.00000000000E+00 0. -1.
          2    1    1    2  501    0  0.27760424162E+02 -0.87756590511E+01 -0.38902233687E+03  0.39011028175E+03  0.00000000000E+00 0.  1.
          1    1    1    2  502    0 -0.25192803374E+02  0.14562081430E+02 -0.12272087378E+04  0.12275536720E+04  0.00000000000E+00 0. -1.
         22    1    1    2    0    0 -0.15565274010E+02  0.67596270745E+01  0.32035068376E+02  0.36252116063E+02  0.00000000000E+00 0.  1.
         22    1    1    2    0    0  0.12997653223E+02 -0.12546049453E+02 -0.10840833564E+03  0.10990318277E+03  0.00000000000E+00 0.  1.
</event>
<event>
 6    1  0.4069520E-005  0.8765949E+02  0.7818608E-02  0.1309676E+00
          2   -1    0    0  502    0  0.00000000000E+00  0.00000000000E+00  0.24143219101E+03  0.24143219101E+03  0.00000000000E+00 0. -1.
          1   -1    0    0  501    0 -0.00000000000E+00 -0.00000000000E+00 -0.90283652575E+02  0.90283652575E+02  0.00000000000E+00 0. -1.
          2    1    1    2  501    0 -0.48479792299E+02  0.59495815986E+01  0.11156290182E+00  0.48843630381E+02  0.00000000000E+00 0. -1.
          1    1    1    2  502    0 -0.16696005647E+02 -0.38510525407E+02 -0.29850353464E+02  0.51505929500E+02  0.00000000000E+00 0. -1.
         22    1    1    2    0    0 -0.24008844678E+02  0.15730468113E+02 -0.31550611627E+00  0.28704908882E+02  0.00000000000E+00 0.  1.
         22    1    1    2    0    0  0.89184642624E+02  0.16830475696E+02  0.18120283512E+03  0.20266137483E+03  0.00000000000E+00 0. -1.
</event>
<event>
 6    1  0.4069520E-005  0.6224967E+02  0.7818608E-02  0.1442473E+00
          2   -1    0    0  502    0  0.00000000000E+00  0.00000000000E+00  0.44957839198E+02  0.44957839198E+02  0.00000000000E+00 0. -1.
          1   -1    0    0  501    0 -0.00000000000E+00 -0.00000000000E+00 -0.17874175153E+04  0.17874175153E+04  0.00000000000E+00 0.  1.
          2    1    1    2  501    0  0.22678284815E+01 -0.24282820570E+02 -0.46699855097E+03  0.46763494847E+03  0.00000000000E+00 0. -1.
          1    1    1    2  502    0 -0.35636224340E+02  0.18164155358E+02 -0.12285985771E+04  0.12292495030E+04  0.00000000000E+00 0.  1.
         22    1    1    2    0    0  0.15665841551E+02  0.22037626621E+02  0.38401529482E+02  0.46965445225E+02  0.00000000000E+00 0. -1.
         22    1    1    2    0    0  0.17702554308E+02 -0.15918961409E+02 -0.85264077494E+02  0.88525457763E+02  0.00000000000E+00 0. -1.
</event>
<event>
 6    1  0.4069520E-005  0.9629786E+02  0.7818608E-02  0.1361245E+00
          2   -1    0    0  502    0  0.00000000000E+00  0.00000000000E+00  0.18426093903E+03  0.18426093903E+03  0.00000000000E+00 0.  1.
          1   -1    0    0  501    0 -0.00000000000E+00 -0.00000000000E+00 -0.85467560941E+02  0.85467560941E+02  0.00000000000E+00 0.  1.
          2    1    1    2  501    0 -0.22181204141E+02  0.56529953707E+01  0.10506133913E+02  0.25186127602E+02  0.00000000000E+00 0.  1.
          1    1    1    2  502    0  0.28184136286E+02  0.53917787825E+02 -0.21725958427E+02  0.64602559173E+02  0.00000000000E+00 0.  1.
         22    1    1    2    0    0 -0.13692843334E+02  0.22538612488E+02  0.91760967214E+02  0.95475431999E+02  0.00000000000E+00 0. -1.
         22    1    1    2    0    0  0.76899111885E+01 -0.82109395683E+02  0.18252235385E+02  0.84464381192E+02  0.00000000000E+00 0.  1.
</event>
<event>
 6    1  0.4069520E-005  0.1743999E+03  0.7818608E-02  0.1301974E+00
          2   -1    0    0  502    0  0.00000000000E+00  0.00000000000E+00  0.33858400238E+02  0.33858400238E+02  0.00000000000E+00 0. -1.
          1   -1    0    0  501    0 -0.00000000000E+00 -0.00000000000E+00 -0.71549286223E+03  0.71549286223E+03  0.00000000000E+00 0. -1.
          2    1    1    2  501    0 -0.17966400456E+02  0.60279512523E+02 -0.22008266567E+03  0.22889471576E+03  0.00000000000E+00 0. -1.
          1    1    1    2  502    0  0.46563408108E+02  0.31280165152E+02 -0.26119773536E+03  0.26715324565E+03  0.00000000000E+00 0. -1.
         22    1    1    2    0    0 -0.31701679330E+02 -0.10374023577E+03 -0.21072552107E+03  0.23700691598E+03  0.00000000000E+00 0. -1.
         22    1    1    2    0    0  0.31046716784E+01  0.12180558092E+02  0.10371460111E+02  0.16296385075E+02  0.00000000000E+00 0. -1.
</event>
<event>
 6    1  0.4069520E-005  0.6088407E+02  0.7818608E-02  0.1452017E+00
          2   -1    0    0  502    0  0.00000000000E+00  0.00000000000E+00  0.56090434104E+02  0.56090434104E+02  0.00000000000E+00 0. -1.
          1   -1    0    0  501    0 -0.00000000000E+00 -0.00000000000E+00 -0.22738686800E+04  0.22738686800E+04  0.00000000000E+00 0.  1.
          2    1    1    2  501    0 -0.77887450088E+01  0.22019335175E+02 -0.73009197648E+02  0.76654149343E+02  0.00000000000E+00 0. -1.
          1    1    1    2  502    0  0.32970901214E+02  0.10865376622E+02 -0.21164428938E+04  0.21167275827E+04  0.00000000000E+00 0.  1.
         22    1    1    2    0    0  0.17412630812E+02 -0.18069573448E+02  0.44401611318E+02  0.51002081174E+02  0.00000000000E+00 0. -1.
         22    1    1    2    0    0 -0.42594787017E+02 -0.14815138349E+02 -0.72727765786E+02  0.85575300885E+02  0.00000000000E+00 0. -1.
</event>
<event>
 6    1  0.4069520E-005  0.1724525E+03  0.7818608E-02  0.1207965E+00
          2   -1    0    0  502    0  0.00000000000E+00  0.00000000000E+00  0.37402327961E+03  0.37402327961E+03  0.00000000000E+00 0. -1.
          1   -1    0    0  501    0 -0.00000000000E+00 -0.00000000000E+00 -0.58248778138E+03  0.58248778138E+03  0.00000000000E+00 0.  1.
          2    1    1    2  501    0 -0.36879670729E+02  0.73382928001E+02  0.49364624477E+02  0.95822911586E+02  0.00000000000E+00 0. -1.
          1    1    1    2  502    0 -0.40764638985E+02 -0.80083551765E+01 -0.53644353703E+03  0.53804977276E+03  0.00000000000E+00 0.  1.
         22    1    1    2    0    0  0.81021911446E+01 -0.81049674726E+02  0.92027613362E+02  0.12289742428E+03  0.00000000000E+00 0. -1.
         22    1    1    2    0    0  0.69542118570E+02  0.15675101902E+02  0.18658679743E+03  0.19974095236E+03  0.00000000000E+00 0.  1.
</event>
<event>
 6    1  0.4069520E-005  0.1439474E+03  0.7818608E-02  0.1236200E+00
          2   -1    0    0  502    0  0.00000000000E+00  0.00000000000E+00  0.54271955525E+03  0.54271955525E+03  0.00000000000E+00 0.  1.
          1   -1    0    0  501    0 -0.00000000000E+00 -0.00000000000E+00 -0.23845348897E+03  0.23845348897E+03  0.00000000000E+00 0. -1.
          2    1    1    2  501    0  0.26529874355E+02 -0.28069862598E+02  0.12893763231E+02  0.40718552895E+02  0.00000000000E+00 0.  1.
          1    1    1    2  502    0 -0.61445135937E+02  0.66216222146E+02 -0.20545940618E+03  0.22444077257E+03  0.00000000000E+00 0. -1.
         22    1    1    2    0    0 -0.45063627801E+02 -0.38671452178E+02  0.21637679765E+03  0.22437720545E+03  0.00000000000E+00 0.  1.
         22    1    1    2    0    0  0.79978889382E+02  0.52509263098E+00  0.28045491157E+03  0.29163651331E+03  0.00000000000E+00 0.  1.
</event>
<event>
 6    1  0.4069520E-005  0.2493374E+03  0.7818608E-02  0.1151782E+00
          2   -1    0    0  502    0  0.00000000000E+00  0.00000000000E+00  0.24412549555E+03  0.24412549555E+03  0.00000000000E+00 0.  1.
          1   -1    0    0  501    0 -0.00000000000E+00 -0.00000000000E+00 -0.41890295415E+03  0.41890295415E+03  0.00000000000E+00 0.  1.
          2    1    1    2  501    0 -0.15860721047E+03  0.11585125647E+03 -0.15249302308E+03  0.24866017559E+03  0.00000000000E+00 0.  1.
          1    1    1    2  502    0  0.22318268955E+03 -0.96938313925E+02 -0.90857869521E+02  0.25973583133E+03  0.00000000000E+00 0.  1.
         22    1    1    2    0    0 -0.92890782972E+02 -0.32301159216E+02  0.73696589974E+02  0.12289527990E+03  0.00000000000E+00 0.  1.
         22    1    1    2    0    0  0.28315303892E+02  0.13388216671E+02 -0.51231559730E+01  0.31737162873E+02  0.00000000000E+00 0.  1.
</event>
<event>
 6    1  0.4069520E-005  0.7835705E+02  0.7818608E-02  0.1334473E+00
          2   -1    0    0  502    0  0.00000000000E+00  0.00000000000E+00  0.15342997671E+03  0.15342997671E+03  0.00000000000E+00 0. -1.
          1   -1    0    0  501    0 -0.00000000000E+00 -0.00000000000E+00 -0.23123769142E+03  0.23123769142E+03  0.00000000000E+00 0. -1.
          2    1    1    2  501    0 -0.29932160027E+02 -0.24733345033E+01 -0.15304009618E+02  0.33708519662E+02  0.00000000000E+00 0. -1.
          1    1    1    2  502    0  0.10525640453E+03  0.25403519797E+02 -0.14426672754E+03  0.18038053716E+03  0.00000000000E+00 0. -1.
         22    1    1    2    0    0 -0.13370621908E+02  0.23485902758E+02 -0.26259442258E+02  0.37681818776E+02  0.00000000000E+00 0. -1.
         22    1    1    2    0    0 -0.61953622591E+02 -0.46416088052E+02  0.10802246470E+03  0.13289679252E+03  0.00000000000E+00 0. -1.
</event>
<event>
 6    1  0.4069520E-005  0.8877145E+02  0.7818608E-02  0.1307917E+00
          2   -1    0    0  502    0  0.00000000000E+00  0.00000000000E+00  0.21343318940E+03  0.21343318940E+03  0.00000000000E+00 0. -1.
          1   -1    0    0  501    0 -0.00000000000E+00 -0.00000000000E+00 -0.33858652333E+03  0.33858652333E+03  0.00000000000E+00 0.  1.
          2    1    1    2  501    0 -0.27644085340E+02 -0.18569055036E+02 -0.38566601881E+00  0.33303963691E+02  0.00000000000E+00 0. -1.
          1    1    1    2  502    0 -0.39684373862E+02  0.58795193656E+02 -0.29065409133E+03  0.29918476755E+03  0.00000000000E+00 0.  1.
         22    1    1    2    0    0 -0.33606224199E+02 -0.10077740052E+02  0.22769751993E+02  0.41825838369E+02  0.00000000000E+00 0. -1.
         22    1    1    2    0    0  0.10093468340E+03 -0.30148398567E+02  0.14311667143E+03  0.17770514312E+03  0.00000000000E+00 0. -1.
</event>
<event>
 6    1  0.4069520E-005  0.7803796E+02  0.7818608E-02  0.1434228E+00
          2   -1    0    0  502    0  0.00000000000E+00  0.00000000000E+00  0.93635976402E+02  0.93635976402E+02  0.00000000000E+00 0.  1.
          1   -1    0    0  501    0 -0.00000000000E+00 -0.00000000000E+00 -0.43361107670E+03  0.43361107670E+03  0.00000000000E+00 0.  1.
          2    1    1    2  501    0 -0.11320777444E+02  0.18900487108E+02  0.12220950009E+02  0.25194047591E+02  0.00000000000E+00 0.  1.
          1    1    1    2  502    0 -0.21025457996E+02 -0.95069927725E+01 -0.37271644412E+03  0.37343004768E+03  0.00000000000E+00 0.  1.
         22    1    1    2    0    0  0.47464287455E+02 -0.58478491639E+01 -0.42340140996E+02  0.63872869538E+02  0.00000000000E+00 0. -1.
         22    1    1    2    0    0 -0.15118052015E+02 -0.35456451719E+01  0.62860534812E+02  0.64750088287E+02  0.00000000000E+00 0.  1.
</event>
<event>
 6    1  0.4069520E-005  0.1074830E+03  0.7818608E-02  0.1282709E+00
          2   -1    0    0  502    0  0.00000000000E+00  0.00000000000E+00  0.93925537205E+02  0.93925537205E+02  0.00000000000E+00 0. -1.
          1   -1    0    0  501    0 -0.00000000000E+00 -0.00000000000E+00 -0.73788630710E+03  0.73788630710E+03  0.00000000000E+00 0.  1.
          2    1    1    2  501    0 -0.55168348168E+02 -0.27018411054E+02  0.11628705893E+01  0.61440161486E+02  0.00000000000E+00 0. -1.
          1    1    1    2  502    0  0.52427166743E+02  0.90443268982E+02 -0.61883573946E+03  0.62760358918E+03  0.00000000000E+00 0.  1.
         22    1    1    2    0    0 -0.46624429533E+02 -0.44256112937E+01  0.22205349501E+02  0.51831467383E+02  0.00000000000E+00 0. -1.
         22    1    1    2    0    0  0.49365610958E+02 -0.58999246634E+02 -0.48493250526E+02  0.90936626258E+02  0.00000000000E+00 0.  1.
</event>
<event>
 6    1  0.4069520E-005  0.6256081E+02  0.7818608E-02  0.1393666E+00
          2   -1    0    0  502    0  0.00000000000E+00  0.00000000000E+00  0.16740381490E+03  0.16740381490E+03  0.00000000000E+00 0.  1.
          1   -1    0    0  501    0 -0.00000000000E+00 -0.00000000000E+00 -0.92603831196E+02  0.92603831196E+02  0.00000000000E+00 0. -1.
          2    1    1    2  501    0  0.43197374759E+02  0.50214245989E+01  0.21215122060E+02  0.48387077770E+02  0.00000000000E+00 0.  1.
          1    1    1    2  502    0 -0.39107667903E+02  0.50063012496E+01 -0.41115970605E+02  0.56964864433E+02  0.00000000000E+00 0. -1.
         22    1    1    2    0    0  0.40512113987E+02  0.16419651405E+02 -0.32422316810E+01  0.43833188319E+02  0.00000000000E+00 0.  1.
         22    1    1    2    0    0 -0.44601820842E+02 -0.26447377253E+02  0.97943063929E+02  0.11082251557E+03  0.00000000000E+00 0.  1.
</event>
<event>
 6    1  0.4069520E-005  0.8123927E+02  0.7818608E-02  0.1364749E+00
          2   -1    0    0  502    0  0.00000000000E+00  0.00000000000E+00  0.22921063464E+03  0.22921063464E+03  0.00000000000E+00 0. -1.
          1   -1    0    0  501    0 -0.00000000000E+00 -0.00000000000E+00 -0.63051842439E+02  0.63051842439E+02  0.00000000000E+00 0. -1.
          2    1    1    2  501    0 -0.33571115668E+02  0.13399490503E+02 -0.69398532957E+01  0.36806625989E+02  0.00000000000E+00 0. -1.
          1    1    1    2  502    0  0.34037506237E+02 -0.38119771448E+02  0.97932261774E+02  0.11046445900E+03  0.00000000000E+00 0. -1.
         22    1    1    2    0    0  0.38433478699E+02 -0.15449541896E+02  0.78727943359E+02  0.88960157909E+02  0.00000000000E+00 0. -1.
         22    1    1    2    0    0 -0.38899869268E+02  0.40169822840E+02 -0.35615596414E+01  0.56031234175E+02  0.00000000000E+00 0. -1.
</event>
<event>
 6    1  0.4069520E-005  0.1727210E+03  0.7818608E-02  0.1273569E+00
          2   -1    0    0  502    0  0.00000000000E+00  0.00000000000E+00  0.10375591964E+03  0.10375591964E+03  0.00000000000E+00 0. -1.
          1   -1    0    0  501    0 -0.00000000000E+00 -0.00000000000E+00 -0.24949440507E+03  0.24949440507E+03  0.00000000000E+00 0. -1.
          2    1    1    2  501    0  0.64625856849E+01  0.44448156012E+02 -0.15846338262E+02  0.47628878036E+02  0.00000000000E+00 0. -1.
          1    1    1    2  502    0  0.11911068389E+01  0.74381272038E+02 -0.11331759627E+03  0.13555393756E+03  0.00000000000E+00 0. -1.
         22    1    1    2    0    0  0.18347842207E+02  0.12268824067E+02  0.21792738331E+02  0.31017588585E+02  0.00000000000E+00 0.  1.
         22    1    1    2    0    0 -0.26001534731E+02 -0.13109825212E+03 -0.38367289235E+02  0.13904992053E+03  0.00000000000E+00 0. -1.
</event>
<event>
 6    1  0.4069520E-005  0.3028649E+03  0.7818608E-02  0.1200888E+00
          2   -1    0    0  502    0  0.00000000000E+00  0.00000000000E+00  0.67480410851E+02  0.67480410851E+02  0.00000000000E+00 0. -1.
          1   -1    0    0  501    0 -0.00000000000E+00 -0.00000000000E+00 -0.17288100408E+04  0.17288100408E+04  0.00000000000E+00 0. -1.
          2    1    1    2  501    0  0.24660709283E+02  0.22773457499E+03 -0.10055880824E+04  0.10313479426E+04  0.00000000000E+00 0. -1.
          1    1    1    2  502    0  0.36672378222E+02 -0.24578283531E+03 -0.34885470692E+03  0.42831492152E+03  0.00000000000E+00 0. -1.
         22    1    1    2    0    0 -0.70354629531E+02  0.33692912793E+02 -0.30876910438E+03  0.31847032214E+03  0.00000000000E+00 0. -1.
         22    1    1    2    0    0  0.90215420261E+01 -0.15644652471E+02  0.18822637019E+01  0.18157265436E+02  0.00000000000E+00 0.  1.
</event>
<event>
 6    1  0.4069520E-005  0.8237940E+02  0.7818608E-02  0.1350053E+00
          2   -1    0    0  502    0  0.00000000000E+00  0.00000000000E+00  0.15273533438E+03  0.15273533438E+03  0.00000000000E+00 0. -1.
          1   -1    0    0  501    0 -0.00000000000E+00 -0.00000000000E+00 -0.47012801917E+03  0.47012801917E+03  0.00000000000E+00 0. -1.
          2    1    1    2  501    0  0.76918665577E+02 -0.42399098845E+01 -0.12356493415E+02  0.78020131245E+02  0.00000000000E+00 0. -1.
          1    1    1    2  502    0 -0.63567194239E+02 -0.24144438709E+01 -0.38946352640E+03  0.39462444947E+03  0.00000000000E+00 0. -1.
         22    1    1    2    0    0  0.20185289217E+02 -0.31643118539E+02 -0.13470043453E+02  0.39876997409E+02  0.00000000000E+00 0.  1.
         22    1    1    2    0    0 -0.33536760556E+02  0.38297472295E+02  0.97897378475E+02  0.11034177543E+03  0.00000000000E+00 0. -1.
</event>
<event>
 6    1  0.4069520E-005  0.9219920E+02  0.7818608E-02  0.1346316E+00
          2   -1    0    0  502    0  0.00000000000E+00  0.00000000000E+00  0.70387483882E+02  0.70387483882E+02  0.00000000000E+00 0. -1.
          1   -1    0    0  501    0 -0.00000000000E+00 -0.00000000000E+00 -0.44288495882E+03  0.44288495882E+03  0.00000000000E+00 0.  1.
          2    1    1    2  501    0  0.24447524401E+02 -0.44258049868E+02 -0.12318154950E+03  0.13315461150E+03  0.00000000000E+00 0. -1.
          1    1    1    2  502    0 -0.55497593383E+02  0.81030034967E+01 -0.23958620507E+03  0.24606338857E+03  0.00000000000E+00 0.  1.
         22    1    1    2    0    0  0.53521370707E+02  0.46364411502E+01 -0.53366338686E+02  0.75723178840E+02  0.00000000000E+00 0. -1.
         22    1    1    2    0    0 -0.22471301724E+02  0.31518605221E+02  0.43636618319E+02  0.58331263783E+02  0.00000000000E+00 0. -1.
</event>
<event>
 6    1  0.4069520E-005  0.1114408E+03  0.7818608E-02  0.1258612E+00
          2   -1    0    0  502    0  0.00000000000E+00  0.00000000000E+00  0.57966664241E+03  0.57966664241E+03  0.00000000000E+00 0. -1.
          1   -1    0    0  501    0 -0.00000000000E+00 -0.00000000000E+00 -0.23824627361E+03  0.23824627361E+03  0.00000000000E+00 0. -1.
          2    1    1    2  501    0 -0.59271083298E+02  0.92056840048E+01  0.72196447657E+02  0.93862308664E+02  0.00000000000E+00 0. -1.
          1    1    1    2  502    0 -0.32576608901E+02  0.87583915688E+01 -0.21316924559E+03  0.21582185278E+03  0.00000000000E+00 0. -1.
         22    1    1    2    0    0  0.12101053746E+03 -0.10550914100E+02  0.43848956878E+03  0.45500326800E+03  0.00000000000E+00 0. -1.
         22    1    1    2    0    0 -0.29162845262E+02 -0.74131614741E+01  0.43903597964E+02  0.53225486573E+02  0.00000000000E+00 0.  1.
</event>
<event>
 6    1  0.4069520E-005  0.8189747E+02  0.7818608E-02  0.1331278E+00
          2   -1    0    0  502    0  0.00000000000E+00  0.00000000000E+00  0.25176109849E+03  0.25176109849E+03  0.00000000000E+00 0. -1.
          1   -1    0    0  501    0 -0.00000000000E+00 -0.00000000000E+00 -0.25495348643E+03  0.25495348643E+03  0.00000000000E+00 0. -1.
          2    1    1    2  501    0  0.18133081189E+02 -0.22430545857E+02  0.50762214874E+02  0.58384419837E+02  0.00000000000E+00 0. -1.
          1    1    1    2  502    0  0.18166682902E+02  0.32697539513E+02 -0.22796875157E+03  0.23101711873E+03  0.00000000000E+00 0. -1.
         22    1    1    2    0    0 -0.19545350042E+02  0.53418852206E+02  0.45245179407E+02  0.72682327555E+02  0.00000000000E+00 0. -1.
         22    1    1    2    0    0 -0.16754414049E+02 -0.63685845861E+02  0.12876896934E+03  0.14463071879E+03  0.00000000000E+00 0. -1.
</event>
<event>
 6    1  0.4069520E-005  0.7601565E+02  0.7818608E-02  0.1344105E+00
          2   -1    0    0  502    0  0.00000000000E+00  0.00000000000E+00  0.21604792958E+03  0.21604792958E+03  0.00000000000E+00 0.  1.
          1   -1    0    0  501    0 -0.00000000000E+00 -0.00000000000E+00 -0.62767758633E+02  0.62767758633E+02  0.00000000000E+00 0.  1.
          2    1    1    2  501    0 -0.32951961163E+02 -0.41674058300E+01 -0.97354187926E+01  0.34611810049E+02  0.00000000000E+00 0.  1.
          1    1    1    2  502    0  0.59998588889E+01 -0.30076670500E+02 -0.67683616862E+01  0.31407246536E+02  0.00000000000E+00 0.  1.
         22    1    1    2    0    0  0.65650897394E+02  0.31863479449E+02  0.15496779081E+03  0.17129021525E+03  0.00000000000E+00 0.  1.
         22    1    1    2    0    0 -0.38698795120E+02  0.23805968816E+01  0.14816160615E+02  0.41506416379E+02  0.00000000000E+00 0.  1.
</event>
<event>
 6    1  0.4069520E-005  0.1352940E+03  0.7818608E-02  0.1269595E+00
          2   -1    0    0  502    0  0.00000000000E+00  0.00000000000E+00  0.45609310615E+02  0.45609310615E+02  0.00000000000E+00 0. -1.
          1   -1    0    0  501    0 -0.00000000000E+00 -0.00000000000E+00 -0.10095168534E+04  0.10095168534E+04  0.00000000000E+00 0. -1.
          2    1    1    2  501    0  0.30007658163E+02 -0.85801270840E+02 -0.78569655563E+02  0.12014786058E+03  0.00000000000E+00 0. -1.
          1    1    1    2  502    0 -0.35455832465E+02  0.10530490144E+03 -0.70370842816E+03  0.71242669110E+03  0.00000000000E+00 0. -1.
         22    1    1    2    0    0 -0.70741409704E+01 -0.67478330849E+02 -0.14750624332E+03  0.16236212742E+03  0.00000000000E+00 0. -1.
         22    1    1    2    0    0  0.12522315272E+02  0.47974700246E+02 -0.34123215781E+02  0.60189484951E+02  0.00000000000E+00 0.  1.
</event>
<event>
 6    1  0.4069520E-005  0.7332689E+02  0.7818608E-02  0.1355532E+00
          2   -1    0    0  502    0  0.00000000000E+00  0.00000000000E+00  0.15859218159E+03  0.15859218159E+03  0.00000000000E+00 0. -1.
          1   -1    0    0  501    0 -0.00000000000E+00 -0.00000000000E+00 -0.16206439031E+03  0.16206439031E+03  0.00000000000E+00 0. -1.
          2    1    1    2  501    0 -0.31435757360E+02 -0.25754174580E+02 -0.12676117014E+02  0.42569570019E+02  0.00000000000E+00 0. -1.
          1    1    1    2  502    0  0.11102220983E+02  0.23530894505E+02 -0.10650629329E+03  0.10963828171E+03  0.00000000000E+00 0. -1.
         22    1    1    2    0    0  0.42837407821E+02  0.44513092474E+02  0.10089447743E+03  0.11830534429E+03  0.00000000000E+00 0. -1.
         22    1    1    2    0    0 -0.22503871444E+02 -0.42289812400E+02  0.14815724143E+02  0.50143375880E+02  0.00000000000E+00 0. -1.
</event>
<event>
 6    1  0.4069520E-005  0.1190099E+03  0.7818608E-02  0.1283892E+00
          2   -1    0    0  502    0  0.00000000000E+00  0.00000000000E+00  0.28960737908E+03  0.28960737908E+03  0.00000000000E+00 0.  1.
          1   -1    0    0  501    0 -0.00000000000E+00 -0.00000000000E+00 -0.43604300161E+03  0.43604300161E+03  0.00000000000E+00 0.  1.
          2    1    1    2  501    0  0.80748163172E+01 -0.22531589717E+02 -0.46575848742E+01  0.24383771049E+02  0.00000000000E+00 0.  1.
          1    1    1    2  502    0 -0.21640751406E+02  0.34764518499E+01 -0.40765237880E+03  0.40824119070E+03  0.00000000000E+00 0.  1.
         22    1    1    2    0    0  0.61598366833E+02  0.36527831944E+02  0.16744687106E+03  0.18211835693E+03  0.00000000000E+00 0.  1.
         22    1    1    2    0    0 -0.48032431744E+02 -0.17472694077E+02  0.98427470077E+02  0.11090706201E+03  0.00000000000E+00 0. -1.
</event>
<event>
 6    1  0.4069520E-005  0.1893554E+03  0.7818608E-02  0.1200354E+00
          2   -1    0    0  502    0  0.00000000000E+00  0.00000000000E+00  0.20819055397E+03  0.20819055397E+03  0.00000000000E+00 0. -1.
          1   -1    0    0  501    0 -0.00000000000E+00 -0.00000000000E+00 -0.29744410368E+03  0.29744410368E+03  0.00000000000E+00 0. -1.
          2    1    1    2  501    0 -0.96043826514E+02  0.29580767249E+02 -0.10418161595E+03  0.14475236614E+03  0.00000000000E+00 0. -1.
          1    1    1    2  502    0  0.19745679799E+03 -0.28038952909E+02  0.16945106310E+01  0.19944483277E+03  0.00000000000E+00 0. -1.
         22    1    1    2    0    0 -0.54373483557E+02  0.51304397102E+02  0.41203596377E+02  0.85360138417E+02  0.00000000000E+00 0. -1.
         22    1    1    2    0    0 -0.47039487914E+02 -0.52846211442E+02 -0.27970040759E+02  0.76077320320E+02  0.00000000000E+00 0. -1.
</event>
<event>
 6    1  0.4069520E-005  0.2164105E+03  0.7818608E-02  0.1193485E+00
          2   -1    0    0  502    0  0.00000000000E+00  0.00000000000E+00  0.15866631342E+03  0.15866631342E+03  0.00000000000E+00 0.  1.
          1   -1    0    0  501    0 -0.00000000000E+00 -0.00000000000E+00 -0.76506502529E+03  0.76506502529E+03  0.00000000000E+00 0.  1.
          2    1    1    2  501    0  0.81308492016E+02 -0.31699184080E+01  0.12553394712E+02  0.82332903358E+02  0.00000000000E+00 0.  1.
          1    1    1    2  502    0  0.62105527772E+02 -0.28428855008E+02 -0.64612900523E+03  0.64972916494E+03  0.00000000000E+00 0.  1.
         22    1    1    2    0    0 -0.14291229854E+02  0.56399785110E+02  0.59830395772E+01  0.58489073969E+02  0.00000000000E+00 0. -1.
         22    1    1    2    0    0 -0.12912278993E+03 -0.24801011694E+02  0.21193859071E+02  0.13318019644E+03  0.00000000000E+00 0. -1.
</event>
<event>
 6    1  0.4069520E-005  0.1074850E+03  0.7818608E-02  0.1323891E+00
          2   -1    0    0  502    0  0.00000000000E+00  0.00000000000E+00  0.61286386261E+02  0.61286386261E+02  0.00000000000E+00 0. -1.
          1   -1    0    0  501    0 -0.00000000000E+00 -0.00000000000E+00 -0.30578634160E+04  0.30578634160E+04  0.00000000000E+00 0.  1.
          2    1    1    2  501    0  0.44578430825E+02 -0.66824092031E+00 -0.30298501152E+02  0.53904380275E+02  0.00000000000E+00 0. -1.
          1    1    1    2  502    0 -0.77277515284E+02  0.48636048872E+02 -0.29188415828E+04  0.29202694166E+04  0.00000000000E+00 0.  1.
         22    1    1    2    0    0  0.22714792423E+02 -0.28106105225E+02  0.40496600644E+02  0.54276050054E+02  0.00000000000E+00 0. -1.
         22    1    1    2    0    0  0.99842920353E+01 -0.19861702727E+02 -0.87933546430E+02  0.90699955405E+02  0.00000000000E+00 0. -1.
</event>
<event>
 6    1  0.4069520E-005  0.1309826E+03  0.7818608E-02  0.1235741E+00
          2   -1    0    0  502    0  0.00000000000E+00  0.00000000000E+00  0.50663294179E+03  0.50663294179E+03  0.00000000000E+00 0. -1.
          1   -1    0    0  501    0 -0.00000000000E+00 -0.00000000000E+00 -0.32872456992E+03  0.32872456992E+03  0.00000000000E+00 0. -1.
          2    1    1    2  501    0 -0.68789697276E+02 -0.68342801030E+02  0.63849087696E+02  0.11610110638E+03  0.00000000000E+00 0. -1.
          1    1    1    2  502    0  0.60813485543E+01  0.28470255892E+02 -0.28900838344E+03  0.29047096924E+03  0.00000000000E+00 0. -1.
         22    1    1    2    0    0  0.99621511980E+02  0.30421926771E+02  0.33448429517E+03  0.35032796490E+03  0.00000000000E+00 0. -1.
         22    1    1    2    0    0 -0.36913163258E+02  0.94506183667E+01  0.68583372444E+02  0.78457471187E+02  0.00000000000E+00 0. -1.
</event>
<event>
 6    1  0.4069520E-005  0.1005523E+03  0.7818608E-02  0.1294987E+00
          2   -1    0    0  502    0  0.00000000000E+00  0.00000000000E+00  0.10206463066E+02  0.10206463066E+02  0.00000000000E+00 0.  1.
          1   -1    0    0  501    0 -0.00000000000E+00 -0.00000000000E+00 -0.13474509752E+04  0.13474509752E+04  0.00000000000E+00 0.  1.
          2    1    1    2  501    0  0.29323052123E+02  0.15097110103E+02 -0.38370687703E+03  0.38512171011E+03  0.00000000000E+00 0.  1.
          1    1    1    2  502    0 -0.78025263530E+01 -0.21768048015E+02 -0.51410777077E+03  0.51462756174E+03  0.00000000000E+00 0.  1.
         22    1    1    2    0    0  0.28833399760E+02  0.52677453008E+02 -0.18554861719E+03  0.19502453266E+03  0.00000000000E+00 0.  1.
         22    1    1    2    0    0 -0.50353925530E+02 -0.46006515096E+02 -0.25388124714E+03  0.26288363375E+03  0.00000000000E+00 0. -1.
</event>
<event>
 6    1  0.4069520E-005  0.1847302E+03  0.7818608E-02  0.1240023E+00
          2   -1    0    0  502    0  0.00000000000E+00  0.00000000000E+00  0.35606445356E+03  0.35606445356E+03  0.00000000000E+00 0.  1.
          1   -1    0    0  501    0 -0.00000000000E+00 -0.00000000000E+00 -0.28216644153E+03  0.28216644153E+03  0.00000000000E+00 0. -1.
          2    1    1    2  501    0  0.47790358467E+02 -0.71223193050E+02  0.86001563695E+02  0.12146164229E+03  0.00000000000E+00 0.  1.
          1    1    1    2  502    0 -0.17548239852E+01  0.12037691730E+03 -0.22809512898E+03  0.25791678792E+03  0.00000000000E+00 0. -1.
         22    1    1    2    0    0  0.34832224153E+02  0.34941615488E+01  0.19809868115E+02  0.40223424508E+02  0.00000000000E+00 0. -1.
         22    1    1    2    0    0 -0.80867758635E+02 -0.52647885794E+02  0.19618170920E+03  0.21862904037E+03  0.00000000000E+00 0.  1.
</event>
<event>
 6    1  0.4069520E-005  0.1533041E+03  0.7818608E-02  0.1264914E+00
          2   -1    0    0  502    0  0.00000000000E+00  0.00000000000E+00  0.58298659715E+03  0.58298659715E+03  0.00000000000E+00 0.  1.
          1   -1    0    0  501    0 -0.00000000000E+00 -0.00000000000E+00 -0.16387276750E+03  0.16387276750E+03  0.00000000000E+00 0.  1.
          2    1    1    2  501    0 -0.54775653362E+02  0.16789943554E+02  0.10534285503E+03  0.11991410055E+03  0.00000000000E+00 0.  1.
          1    1    1    2  502    0  0.14198604769E+03 -0.11475322445E+02 -0.10770725112E+03  0.17858491736E+03  0.00000000000E+00 0.  1.
         22    1    1    2    0    0 -0.10033661176E+03 -0.40254502690E+02  0.24212780234E+03  0.26516736849E+03  0.00000000000E+00 0.  1.
         22    1    1    2    0    0  0.13126217429E+02  0.34939881581E+02  0.17935042339E+03  0.18319297824E+03  0.00000000000E+00 0. -1.
</event>
<event>
 6    1  0.4069520E-005  0.7134402E+02  0.7818608E-02  0.1358926E+00
          2   -1    0    0  502    0  0.00000000000E+00  0.00000000000E+00  0.15786222643E+03  0.15786222643E+03  0.00000000000E+00 0. -1.
          1   -1    0    0  501    0 -0.00000000000E+00 -0.00000000000E+00 -0.79701482107E+03  0.79701482107E+03  0.00000000000E+00 0. -1.
          2    1    1    2  501    0 -0.27170543472E+02  0.35118131032E+01  0.55047199659E+02  0.61487929337E+02  0.00000000000E+00 0. -1.
          1    1    1    2  502    0  0.14687391930E+02  0.15297282379E+02 -0.75228210360E+03  0.75258095228E+03  0.00000000000E+00 0. -1.
         22    1    1    2    0    0  0.54612218018E+02  0.27396405034E+01 -0.12252452838E+02  0.56036796727E+02  0.00000000000E+00 0.  1.
         22    1    1    2    0    0 -0.42129066476E+02 -0.21548735985E+02  0.70334762142E+02  0.84771369166E+02  0.00000000000E+00 0. -1.
</event>
<event>
 6    1  0.4069520E-005  0.6177050E+03  0.7818608E-02  0.1081631E+00
          2   -1    0    0  502    0  0.00000000000E+00  0.00000000000E+00  0.22341453584E+03  0.22341453584E+03  0.00000000000E+00 0. -1.
          1   -1    0    0  501    0 -0.00000000000E+00 -0.00000000000E+00 -0.99155605849E+03  0.99155605849E+03  0.00000000000E+00 0. -1.
          2    1    1    2  501    0 -0.33393213508E+03  0.41933032362E+02 -0.45837261532E+03  0.56866027162E+03  0.00000000000E+00 0. -1.
          1    1    1    2  502    0  0.10201795151E+03 -0.22260192501E+03 -0.16513751930E+03  0.29534671105E+03  0.00000000000E+00 0. -1.
         22    1    1    2    0    0  0.21500815389E+02  0.31153487786E+02  0.21947250224E+02  0.43755075774E+02  0.00000000000E+00 0. -1.
         22    1    1    2    0    0  0.21041336817E+03  0.14951540487E+03 -0.16657863826E+03  0.30720853589E+03  0.00000000000E+00 0. -1.
</event>
<event>
 6    1  0.4069520E-005  0.1181805E+03  0.7818608E-02  0.1307300E+00
          2   -1    0    0  502    0  0.00000000000E+00  0.00000000000E+00  0.72541268917E+03  0.72541268917E+03  0.00000000000E+00 0. -1.
          1   -1    0    0  501    0 -0.00000000000E+00 -0.00000000000E+00 -0.71391431623E+02  0.71391431623E+02  0.00000000000E+00 0.  1.
          2    1    1    2  501    0 -0.31130232301E+02  0.71339565191E+01  0.73440465298E+02  0.80084247152E+02  0.00000000000E+00 0. -1.
          1    1    1    2  502    0  0.53267747008E+02 -0.76254825541E+02 -0.23055860854E+02  0.95832270187E+02  0.00000000000E+00 0.  1.
         22    1    1    2    0    0 -0.13828938347E+01 -0.36617931434E+02  0.18586458993E+03  0.18944242156E+03  0.00000000000E+00 0.  1.
         22    1    1    2    0    0 -0.20754620872E+02  0.10573880046E+03  0.41777206317E+03  0.43144518189E+03  0.00000000000E+00 0. -1.
</event>
<event>
 6    1  0.4069520E-005  0.2370280E+03  0.7818608E-02  0.1232609E+00
          2   -1    0    0  502    0  0.00000000000E+00  0.00000000000E+00  0.74276516503E+03  0.74276516503E+03  0.00000000000E+00 0. -1.
          1   -1    0    0  501    0 -0.00000000000E+00 -0.00000000000E+00 -0.10265807194E+03  0.10265807194E+03  0.00000000000E+00 0. -1.
          2    1    1    2  501    0 -0.19669300920E+02 -0.15557093161E+02  0.75341910645E+02  0.79405969838E+02  0.00000000000E+00 0. -1.
          1    1    1    2  502    0  0.22202590805E+03 -0.20814387553E+02  0.10153584115E+03  0.24502707934E+03  0.00000000000E+00 0. -1.
         22    1    1    2    0    0  0.73677130831E+01 -0.17819653081E+02  0.63232763864E+02  0.66107531023E+02  0.00000000000E+00 0.  1.
         22    1    1    2    0    0 -0.20972432021E+03  0.54191133795E+02  0.39999657743E+03  0.45488265677E+03  0.00000000000E+00 0. -1.
</event>
<event>
 6    1  0.4069520E-005  0.5806696E+02  0.7818608E-02  0.1431708E+00
          2   -1    0    0  502    0  0.00000000000E+00  0.00000000000E+00  0.38644165382E+02  0.38644165382E+02  0.00000000000E+00 0.  1.
          1   -1    0    0  501    0 -0.00000000000E+00 -0.00000000000E+00 -0.71593772623E+03  0.71593772623E+03  0.00000000000E+00 0.  1.
          2    1    1    2  501    0 -0.14599845003E+02 -0.37766947827E+02 -0.71848981019E+02  0.82472867634E+02  0.00000000000E+00 0.  1.
          1    1    1    2  502    0 -0.49377709709E+01  0.38136517320E+02 -0.51936088404E+03  0.52078258747E+03  0.00000000000E+00 0.  1.
         22    1    1    2    0    0  0.39279895174E+02  0.13869342957E+01  0.19515925381E+02  0.43882856506E+02  0.00000000000E+00 0.  1.
         22    1    1    2    0    0 -0.19742279200E+02 -0.17565037883E+01 -0.10559962116E+03  0.10744358000E+03  0.00000000000E+00 0. -1.
</event>
<event>
 6    1  0.4069520E-005  0.9317134E+02  0.7818608E-02  0.1326253E+00
          2   -1    0    0  502    0  0.00000000000E+00  0.00000000000E+00  0.62437194494E+02  0.62437194494E+02  0.00000000000E+00 0.  1.
          1   -1    0    0  501    0 -0.00000000000E+00 -0.00000000000E+00 -0.28323047142E+03  0.28323047142E+03  0.00000000000E+00 0.  1.
          2    1    1    2  501    0  0.19382751203E+02 -0.57947159539E+02 -0.83254355067E+02  0.10327077021E+03  0.00000000000E+00 0.  1.
          1    1    1    2  502    0 -0.42165257862E+02  0.49419987215E+02 -0.26604060459E+02  0.70199858546E+02  0.00000000000E+00 0.  1.
         22    1    1    2    0    0  0.18695739640E+02 -0.44522730274E+02 -0.10869976895E+03  0.11894302822E+03  0.00000000000E+00 0. -1.
         22    1    1    2    0    0  0.40867670196E+01  0.53049902598E+02 -0.22350924557E+01  0.53254008944E+02  0.00000000000E+00 0.  1.
</event>
<event>
 6    1  0.4069520E-005  0.1192243E+03  0.7818608E-02  0.1272879E+00
          2   -1    0    0  502    0  0.00000000000E+00  0.00000000000E+00  0.34921754471E+03  0.34921754471E+03  0.00000000000E+00 0. -1.
          1   -1    0    0  501    0 -0.00000000000E+00 -0.00000000000E+00 -0.31037880823E+03  0.31037880823E+03  0.00000000000E+00 0. -1.
          2    1    1    2  501    0  0.67270861171E+02  0.42093897331E+02 -0.20609923749E+03  0.22084872798E+03  0.00000000000E+00 0. -1.
          1    1    1    2  502    0 -0.50484631510E+02 -0.13350674472E+03  0.24520825088E+03  0.28372492876E+03  0.00000000000E+00 0. -1.
         22    1    1    2    0    0 -0.33688014924E+02  0.59074780398E+02  0.55906670396E+02  0.88035605430E+02  0.00000000000E+00 0. -1.
         22    1    1    2    0    0  0.16901785263E+02  0.32338066987E+02 -0.56176947305E+02  0.66987090771E+02  0.00000000000E+00 0. -1.
</event>
<event>
 6    1  0.4069520E-005  0.7433437E+02  0.7818608E-02  0.1349234E+00
          2   -1    0    0  502    0  0.00000000000E+00  0.00000000000E+00  0.62353531885E+02  0.62353531885E+02  0.00000000000E+00 0. -1.
          1   -1    0    0  501    0 -0.00000000000E+00 -0.00000000000E+00 -0.74729461992E+03  0.74729461992E+03  0.00000000000E+00 0. -1.
          2    1    1    2  501    0 -0.25070817761E+02 -0.11765415381E+02 -0.17068541643E+02  0.32531615639E+02  0.00000000000E+00 0. -1.
          1    1    1    2  502    0  0.47274409632E+02 -0.11788773788E+02 -0.64889263466E+03  0.65071921465E+03  0.00000000000E+00 0. -1.
         22    1    1    2    0    0  0.40265948534E+02  0.42730368994E+02 -0.16569329052E+02  0.61006341563E+02  0.00000000000E+00 0. -1.
         22    1    1    2    0    0 -0.62469540404E+02 -0.19176179824E+02 -0.24105826804E+01  0.65390979958E+02  0.00000000000E+00 0. -1.
</event>
<event>
 6    1  0.4069520E-005  0.1788439E+03  0.7818608E-02  0.1169711E+00
          2   -1    0    0  502    0  0.00000000000E+00  0.00000000000E+00  0.26536932885E+03  0.26536932885E+03  0.00000000000E+00 0.  1.
          1   -1    0    0  501    0 -0.00000000000E+00 -0.00000000000E+00 -0.62631147575E+03  0.62631147575E+03  0.00000000000E+00 0.  1.
          2    1    1    2  501    0  0.12136765221E+03 -0.11770044142E+03  0.14329179775E+03  0.22162138935E+03  0.00000000000E+00 0.  1.
          1    1    1    2  502    0  0.46629286847E+01  0.35491685005E+02 -0.46802283320E+03  0.46938979005E+03  0.00000000000E+00 0.  1.
         22    1    1    2    0    0  0.11093585085E+02 -0.54307462929E+01  0.24127756384E+02  0.27105520904E+02  0.00000000000E+00 0. -1.
         22    1    1    2    0    0 -0.13712416598E+03  0.87639502703E+02 -0.60338867835E+02  0.17356410430E+03  0.00000000000E+00 0. -1.
</event>
<event>
 6    1  0.4069520E-005  0.1526161E+03  0.7818608E-02  0.1274561E+00
          2   -1    0    0  502    0  0.00000000000E+00  0.00000000000E+00  0.29521978302E+02  0.29521978302E+02  0.00000000000E+00 0. -1.
          1   -1    0    0  501    0 -0.00000000000E+00 -0.00000000000E+00 -0.24471196073E+04  0.24471196073E+04  0.00000000000E+00 0.  1.
          2    1    1    2  501    0  0.77378660705E+01 -0.18750548208E+02 -0.14304563032E+03  0.14447667626E+03  0.00000000000E+00 0. -1.
          1    1    1    2  502    0  0.61601537765E+02 -0.56784857126E+02 -0.20616814448E+04  0.20633830592E+04  0.00000000000E+00 0.  1.
         22    1    1    2    0    0 -0.34642649516E+01 -0.31198566153E+02 -0.15697701332E+02  0.35096573747E+02  0.00000000000E+00 0.  1.
         22    1    1    2    0    0 -0.65875138884E+02  0.10673397149E+03 -0.19717285259E+03  0.23368527637E+03  0.00000000000E+00 0. -1.
</event>
<event>
 6    1  0.4069520E-005  0.6267784E+02  0.7818608E-02  0.1398336E+00
          2   -1    0    0  502    0  0.00000000000E+00  0.00000000000E+00  0.35973309808E+03  0.35973309808E+03  0.00000000000E+00 0. -1.
          1   -1    0    0  501    0 -0.00000000000E+00 -0.00000000000E+00 -0.11684343308E+03  0.11684343308E+03  0.00000000000E+00 0. -1.
          2    1    1    2  501    0  0.69716805354E+01 -0.24750636181E+02  0.93857148272E+02  0.97315788044E+02  0.00000000000E+00 0. -1.
          1    1    1    2  502    0 -0.13905775999E+02  0.17710448794E+02 -0.99166022530E+02  0.10169036644E+03  0.00000000000E+00 0. -1.
         22    1    1    2    0    0 -0.26410157956E+02 -0.26043419135E+02  0.21931318218E+03  0.22242757923E+03  0.00000000000E+00 0. -1.
         22    1    1    2    0    0  0.33344253420E+02  0.33083606523E+02  0.28885357084E+02  0.55142797450E+02  0.00000000000E+00 0.  1.
</event>
<event>
 6    1  0.4069520E-005  0.1965870E+03  0.7818608E-02  0.1153131E+00
          2   -1    0    0  502    0  0.00000000000E+00  0.00000000000E+00  0.19986660433E+03  0.19986660433E+03  0.00000000000E+00 0.  1.
          1   -1    0    0  501    0 -0.00000000000E+00 -0.00000000000E+00 -0.47148981094E+03  0.47148981094E+03  0.00000000000E+00 0.  1.
          2    1    1    2  501    0  0.12865785080E+03 -0.16026660522E+03 -0.12476664467E+02  0.20589777676E+03  0.00000000000E+00 0.  1.
          1    1    1    2  502    0 -0.56305694730E+02  0.28645636881E+02 -0.26349236664E+03  0.27095964838E+03  0.00000000000E+00 0.  1.
         22    1    1    2    0    0 -0.80086996745E+02  0.15213150006E+03 -0.10367122088E+01  0.17192729606E+03  0.00000000000E+00 0.  1.
         22    1    1    2    0    0  0.77348406766E+01 -0.20510531728E+02  0.53825367069E+01  0.22571694076E+02  0.00000000000E+00 0. -1.
</event>
<event>
 6    1  0.4069520E-005  0.1525791E+03  0.7818608E-02  0.1216145E+00
          2   -1    0    0  502    0  0.00000000000E+00  0.00000000000E+00  0.11109543390E+04  0.11109543390E+04  0.00000000000E+00 0. -1.
          1   -1    0    0  501    0 -0.00000000000E+00 -0.00000000000E+00 -0.65392019738E+03  0.65392019738E+03  0.00000000000E+00 0.  1.
          2    1    1    2  501    0 -0.15909549704E+03 -0.12496827046E+03  0.39987970062E+03  0.44814308069E+03  0.00000000000E+00 0. -1.
          1    1    1    2  502    0  0.92571415675E+02  0.95905003857E+02 -0.61507990069E+03  0.62935722845E+03  0.00000000000E+00 0.  1.
         22    1    1    2    0    0 -0.32906195796E+02  0.68222024213E+01  0.85651000973E+02  0.92007902570E+02  0.00000000000E+00 0.  1.
         22    1    1    2    0    0  0.99430277156E+02  0.22241064181E+02  0.58658334067E+03  0.59536632463E+03  0.00000000000E+00 0. -1.
</event>
<event>
 6    1  0.4069520E-005  0.1565682E+03  0.7818608E-02  0.1193230E+00
          2   -1    0    0  502    0  0.00000000000E+00  0.00000000000E+00  0.37906744623E+03  0.37906744623E+03  0.00000000000E+00 0. -1.
          1   -1    0    0  501    0 -0.00000000000E+00 -0.00000000000E+00 -0.24278354528E+03  0.24278354528E+03  0.00000000000E+00 0. -1.
          2    1    1    2  501    0 -0.92271199637E+02 -0.92071014108E+02 -0.13355868417E+02  0.13103215309E+03  0.00000000000E+00 0. -1.
          1    1    1    2  502    0 -0.60317866139E+02  0.11890560304E+03 -0.10242763565E+03  0.16813151982E+03  0.00000000000E+00 0. -1.
         22    1    1    2    0    0 -0.14855539414E+02 -0.20523359666E+02  0.78720662383E+01  0.26530449867E+02  0.00000000000E+00 0.  1.
         22    1    1    2    0    0  0.16744460519E+03 -0.63112292648E+01  0.24419533878E+03  0.29615686874E+03  0.00000000000E+00 0. -1.
</event>
<event>
 6    1  0.4069520E-005  0.4135230E+03  0.7818608E-02  0.1127084E+00
          2   -1    0    0  502    0  0.00000000000E+00  0.00000000000E+00  0.36865138183E+03  0.36865138183E+03  0.00000000000E+00 0. -1.
          1   -1    0    0  501    0 -0.00000000000E+00 -0.00000000000E+00 -0.49281160600E+03  0.49281160600E+03  0.00000000000E+00 0. -1.
          2    1    1    2  501    0 -0.24088642526E+03 -0.14157339654E+03 -0.11344877100E+03  0.30156246471E+03  0.00000000000E+00 0. -1.
          1    1    1    2  502    0  0.24009687835E+03  0.25919938276E+03  0.81690924804E+02  0.36263513097E+03  0.00000000000E+00 0. -1.
         22    1    1    2    0    0 -0.38963923558E+02 -0.37344406511E+01  0.84339043843E+01  0.40040780826E+02  0.00000000000E+00 0. -1.
         22    1    1    2    0    0  0.39753470469E+02 -0.11389154557E+03 -0.10083628236E+03  0.15722461133E+03  0.00000000000E+00 0. -1.
</event>
<event>
 6    1  0.4069520E-005  0.8583665E+02  0.7818608E-02  0.1314934E+00
          2   -1    0    0  502    0  0.00000000000E+00  0.00000000000E+00  0.27018132110E+03  0.27018132110E+03  0.00000000000E+00 0. -1.
          1   -1    0    0  501    0 -0.00000000000E+00 -0.00000000000E+00 -0.15511561657E+03  0.15511561657E+03  0.00000000000E+00 0. -1.
          2    1    1    2  501    0 -0.27559200200E+01 -0.88072721897E+02 -0.59635887889E+01  0.88317403884E+02  0.00000000000E+00 0. -1.
          1    1    1    2  502    0  0.25114612979E+02  0.36701035178E+02 -0.81556440235E+02  0.92893286690E+02  0.00000000000E+00 0. -1.
         22    1    1    2    0    0 -0.32343786272E+02  0.73742422480E+02  0.20423191203E+03  0.21953300270E+03  0.00000000000E+00 0. -1.
         22    1    1    2    0    0  0.99850933134E+01 -0.22370735760E+02 -0.16461784755E+01  0.24553244399E+02  0.00000000000E+00 0. -1.
</event>
<event>
 6    1  0.4069520E-005  0.1389245E+03  0.7818608E-02  0.1216113E+00
          2   -1    0    0  502    0  0.00000000000E+00  0.00000000000E+00  0.34769016044E+03  0.34769016044E+03  0.00000000000E+00 0.  1.
          1   -1    0    0  501    0 -0.00000000000E+00 -0.00000000000E+00 -0.87894802913E+03  0.87894802913E+03  0.00000000000E+00 0.  1.
          2    1    1    2  501    0  0.19123346146E+02  0.10146752505E+03  0.85188146387E+02  0.13385955809E+03  0.00000000000E+00 0.  1.
          1    1    1    2  502    0 -0.63614013442E+01  0.21562973791E+02 -0.82253120137E+03  0.82283838418E+03  0.00000000000E+00 0.  1.
         22    1    1    2    0    0  0.21154943777E+01  0.19561379197E+02  0.98428937664E+00  0.19700043100E+02  0.00000000000E+00 0.  1.
         22    1    1    2    0    0 -0.14877439179E+02 -0.14259187804E+03  0.20510089691E+03  0.25024020419E+03  0.00000000000E+00 0.  1.
</event>
<event>
 6    1  0.4069520E-005  0.8681344E+02  0.7818608E-02  0.1326918E+00
          2   -1    0    0  502    0  0.00000000000E+00  0.00000000000E+00  0.51200592593E+02  0.51200592593E+02  0.00000000000E+00 0. -1.
          1   -1    0    0  501    0 -0.00000000000E+00 -0.00000000000E+00 -0.39845687261E+03  0.39845687261E+03  0.00000000000E+00 0. -1.
          2    1    1    2  501    0  0.28513768918E+02  0.40412975332E+02 -0.47823869938E+02  0.68799463145E+02  0.00000000000E+00 0. -1.
          1    1    1    2  502    0 -0.75067865145E+02 -0.23326547444E+02 -0.19108574320E+03  0.20662302255E+03  0.00000000000E+00 0. -1.
         22    1    1    2    0    0  0.46902993027E+02  0.47918058868E+02 -0.33034968711E+02  0.74748513553E+02  0.00000000000E+00 0. -1.
         22    1    1    2    0    0 -0.34889680025E+00 -0.65004486756E+02 -0.75311698163E+02  0.99486465952E+02  0.00000000000E+00 0. -1.
</event>
<event>
 6    1  0.4069520E-005  0.1038050E+03  0.7818608E-02  0.1313355E+00
          2   -1    0    0  502    0  0.00000000000E+00  0.00000000000E+00  0.21681607294E+02  0.21681607294E+02  0.00000000000E+00 0. -1.
          1   -1    0    0  501    0 -0.00000000000E+00 -0.00000000000E+00 -0.17820026103E+04  0.17820026103E+04  0.00000000000E+00 0. -1.
          2    1    1    2  501    0  0.26845226009E+02  0.86623347258E+01 -0.13471221018E+03  0.13763386856E+03  0.00000000000E+00 0. -1.
          1    1    1    2  502    0 -0.26838330724E+02  0.10166130209E+02 -0.14355384904E+04  0.14358253388E+04  0.00000000000E+00 0. -1.
         22    1    1    2    0    0  0.31909577893E+02 -0.18271124053E+01  0.45406541595E+01  0.32282766939E+02  0.00000000000E+00 0. -1.
         22    1    1    2    0    0 -0.31916473178E+02 -0.17001352529E+02 -0.19461095660E+03  0.19794224329E+03  0.00000000000E+00 0. -1.
</event>
<event>
 6    1  0.4069520E-005  0.9425065E+02  0.7818608E-02  0.1293658E+00
          2   -1    0    0  502    0  0.00000000000E+00  0.00000000000E+00  0.24160407362E+02  0.24160407362E+02  0.00000000000E+00 0.  1.
          1   -1    0    0  501    0 -0.00000000000E+00 -0.00000000000E+00 -0.23898883570E+04  0.23898883570E+04  0.00000000000E+00 0.  1.
          2    1    1    2  501    0 -0.37138282570E+02 -0.28713925858E+02 -0.97251986455E+02  0.10798930706E+03  0.00000000000E+00 0.  1.
          1    1    1    2  502    0 -0.31672115287E+02 -0.20661186375E+02 -0.19971204143E+04  0.19974783996E+04  0.00000000000E+00 0.  1.
         22    1    1    2    0    0 -0.16326797502E+02 -0.27596339153E+02 -0.54832893573E+02  0.63519827369E+02  0.00000000000E+00 0.  1.
         22    1    1    2    0    0  0.85137195359E+02  0.76971451386E+02 -0.21652265523E+03  0.24506123029E+03  0.00000000000E+00 0.  1.
</event>
<event>
 6    1  0.4069520E-005  0.9000420E+02  0.7818608E-02  0.1349553E+00
          2   -1    0    0  502    0  0.00000000000E+00  0.00000000000E+00  0.21180948809E+03  0.21180948809E+03  0.00000000000E+00 0. -1.
          1   -1    0    0  501    0 -0.00000000000E+00 -0.00000000000E+00 -0.11974173187E+04  0.11974173187E+04  0.00000000000E+00 0. -1.
          2    1    1    2  501    0 -0.25288273546E+02 -0.15319291253E+02  0.30274215072E+02  0.42316729099E+02  0.00000000000E+00 0. -1.
          1    1    1    2  502    0  0.77284817548E+02 -0.24215053211E+02 -0.11628149500E+04  0.11656319830E+04  0.00000000000E+00 0. -1.
         22    1    1    2    0    0 -0.83278654915E+02  0.15634074113E+02  0.54332122862E+02  0.10065653587E+03  0.00000000000E+00 0. -1.
         22    1    1    2    0    0  0.31282110913E+02  0.23900270351E+02  0.92600781433E+02  0.10062155886E+03  0.00000000000E+00 0.  1.
</event>
<event>
 6    1  0.4069520E-005  0.1893834E+03  0.7818608E-02  0.1226028E+00
          2   -1    0    0  502    0  0.00000000000E+00  0.00000000000E+00  0.57888599406E+02  0.57888599406E+02  0.00000000000E+00 0. -1.
          1   -1    0    0  501    0 -0.00000000000E+00 -0.00000000000E+00 -0.91194309928E+03  0.91194309928E+03  0.00000000000E+00 0. -1.
          2    1    1    2  501    0 -0.65259348109E+02  0.51418381273E+02 -0.14034047602E+03  0.16308918315E+03  0.00000000000E+00 0. -1.
          1    1    1    2  502    0  0.42922428737E+02 -0.11671370868E+02 -0.66589997308E+03  0.66738394492E+03  0.00000000000E+00 0. -1.
         22    1    1    2    0    0  0.58424011488E+02 -0.63700444433E+02 -0.40416497354E+02  0.95418053835E+02  0.00000000000E+00 0. -1.
         22    1    1    2    0    0 -0.36087092116E+02  0.23953434028E+02 -0.73975534182E+01  0.43940516789E+02  0.00000000000E+00 0. -1.
</event>
<event>
 6    1  0.4069520E-005  0.5378719E+02  0.7818608E-02  0.1445796E+00
          2   -1    0    0  502    0  0.00000000000E+00  0.00000000000E+00  0.29137174498E+03  0.29137174498E+03  0.00000000000E+00 0.  1.
          1   -1    0    0  501    0 -0.00000000000E+00 -0.00000000000E+00 -0.18813163804E+04  0.18813163804E+04  0.00000000000E+00 0.  1.
          2    1    1    2  501    0 -0.48772328651E+02 -0.10302446261E+02  0.37302094322E+02  0.62260153243E+02  0.00000000000E+00 0.  1.
          1    1    1    2  502    0  0.50295750871E+02  0.13546001489E+01 -0.18520893520E+04  0.18527726426E+04  0.00000000000E+00 0.  1.
         22    1    1    2    0    0  0.38672356928E+02  0.98007682846E+01  0.21159654297E+03  0.21532464617E+03  0.00000000000E+00 0.  1.
         22    1    1    2    0    0 -0.40195779147E+02 -0.85292217211E+00  0.13246079267E+02  0.42330683356E+02  0.00000000000E+00 0.  1.
</event>
<event>
 6    1  0.4069520E-005  0.2415431E+03  0.7818608E-02  0.1140310E+00
          2   -1    0    0  502    0  0.00000000000E+00  0.00000000000E+00  0.95558940578E+03  0.95558940578E+03  0.00000000000E+00 0.  1.
          1   -1    0    0  501    0 -0.00000000000E+00 -0.00000000000E+00 -0.54690887432E+03  0.54690887432E+03  0.00000000000E+00 0. -1.
          2    1    1    2  501    0 -0.23283981030E+03 -0.20970635714E+03  0.70828568982E+03  0.77450613419E+03  0.00000000000E+00 0.  1.
          1    1    1    2  502    0  0.21943956295E+03  0.81113528842E+02 -0.43923252290E+03  0.49765282630E+03  0.00000000000E+00 0. -1.
         22    1    1    2    0    0 -0.96057282637E+01 -0.11777550571E+02  0.70627308804E+02  0.72244013329E+02  0.00000000000E+00 0.  1.
         22    1    1    2    0    0  0.23005975613E+02  0.14037037887E+03  0.69000055735E+02  0.15809530629E+03  0.00000000000E+00 0. -1.
</event>
<event>
 6    1  0.4069520E-005  0.3113739E+03  0.7818608E-02  0.1150611E+00
          2   -1    0    0  502    0  0.00000000000E+00  0.00000000000E+00  0.16756805368E+03  0.16756805368E+03  0.00000000000E+00 0. -1.
          1   -1    0    0  501    0 -0.00000000000E+00 -0.00000000000E+00 -0.16323366669E+04  0.16323366669E+04  0.00000000000E+00 0.  1.
          2    1    1    2  501    0 -0.92822297917E+02 -0.16237260277E+03 -0.93480424672E+02  0.20909191978E+03  0.00000000000E+00 0. -1.
          1    1    1    2  502    0  0.22125187128E+03  0.20514267751E+03 -0.13748880549E+04  0.14076054391E+04  0.00000000000E+00 0.  1.
         22    1    1    2    0    0 -0.95572831120E+02 -0.82965456193E+02 -0.16306403236E+02  0.12760615877E+03  0.00000000000E+00 0.  1.
         22    1    1    2    0    0 -0.32856742244E+02  0.40195381455E+02  0.19906269564E+02  0.55601202947E+02  0.00000000000E+00 0. -1.
</event>
<event>
 6    1  0.4069520E-005  0.3409654E+03  0.7818608E-02  0.1137078E+00
          2   -1    0    0  502    0  0.00000000000E+00  0.00000000000E+00  0.10929061448E+04  0.10929061448E+04  0.00000000000E+00 0.  1.
          1   -1    0    0  501    0 -0.00000000000E+00 -0.00000000000E+00 -0.16683486618E+03  0.16683486618E+03  0.00000000000E+00 0. -1.
          2    1    1    2  501    0 -0.47177273513E+02  0.12806745890E+03  0.12945752372E+03  0.18811225269E+03  0.00000000000E+00 0.  1.
          1    1    1    2  502    0 -0.18910393338E+02 -0.20688308081E+02 -0.12721640030E+03  0.13026750006E+03  0.00000000000E+00 0. -1.
         22    1    1    2    0    0  0.54069962654E+02  0.16310828906E+02  0.27589238602E+03  0.28161358750E+03  0.00000000000E+00 0.  1.
         22    1    1    2    0    0  0.12017704197E+02 -0.12368997973E+03  0.64793776920E+03  0.65974767074E+03  0.00000000000E+00 0.  1.
</event>
<event>
 6    1  0.4069520E-005  0.8838297E+02  0.7818608E-02  0.1414197E+00
          2   -1    0    0  502    0  0.00000000000E+00  0.00000000000E+00  0.20019222845E+02  0.20019222845E+02  0.00000000000E+00 0. -1.
          1   -1    0    0  501    0 -0.00000000000E+00 -0.00000000000E+00 -0.39167183723E+04  0.39167183723E+04  0.00000000000E+00 0.  1.
          2    1    1    2  501    0  0.17503813742E+02  0.38767358850E+02 -0.29249685124E+03  0.29557350963E+03  0.00000000000E+00 0. -1.
          1    1    1    2  502    0 -0.76787628543E+01 -0.80925532670E+02 -0.33770323546E+04  0.33780105727E+04  0.00000000000E+00 0.  1.
         22    1    1    2    0    0 -0.27050399819E+01  0.54811269108E+02 -0.23850306943E+03  0.24473517644E+03  0.00000000000E+00 0. -1.
         22    1    1    2    0    0 -0.71200109057E+01 -0.12653095288E+02  0.11333125789E+02  0.18418336402E+02  0.00000000000E+00 0. -1.
</event>
<event>
 6    1  0.4069520E-005  0.1820183E+03  0.7818608E-02  0.1279392E+00
          2   -1    0    0  502    0  0.00000000000E+00  0.00000000000E+00  0.58566603049E+02  0.58566603049E+02  0.00000000000E+00 0.  1.
          1   -1    0    0  501    0 -0.00000000000E+00 -0.00000000000E+00 -0.33192915939E+03  0.33192915939E+03  0.00000000000E+00 0.  1.
          2    1    1    2  501    0 -0.37743245683E+02  0.35126956918E+02 -0.10683880436E+03  0.11862961609E+03  0.00000000000E+00 0.  1.
          1    1    1    2  502    0 -0.78205493506E+01  0.22103800487E+02 -0.12157958327E+03  0.12381976440E+03  0.00000000000E+00 0.  1.
         22    1    1    2    0    0  0.50252897879E+02 -0.73436445534E+02  0.10955445786E+02  0.89656494858E+02  0.00000000000E+00 0.  1.
         22    1    1    2    0    0 -0.46891028450E+01  0.16205688128E+02 -0.55899614499E+02  0.58389887089E+02  0.00000000000E+00 0.  1.
</event>
<event>
 6    1  0.4069520E-005  0.9340502E+02  0.7818608E-02  0.1305942E+00
          2   -1    0    0  502    0  0.00000000000E+00  0.00000000000E+00  0.69379730682E+02  0.69379730682E+02  0.00000000000E+00 0. -1.
          1   -1    0    0  501    0 -0.00000000000E+00 -0.00000000000E+00 -0.15362776509E+03  0.15362776509E+03  0.00000000000E+00 0. -1.
          2    1    1    2  501    0  0.10015699227E+02  0.24174645930E+02 -0.40392401880E+02  0.48127682953E+02  0.00000000000E+00 0. -1.
          1    1    1    2  502    0  0.33271465072E+01  0.27801226404E+02 -0.15169539216E+02  0.31844827107E+02  0.00000000000E+00 0. -1.
         22    1    1    2    0    0 -0.44217246348E+02  0.25928449409E+02 -0.29677104132E+02  0.59229890030E+02  0.00000000000E+00 0. -1.
         22    1    1    2    0    0  0.30874400614E+02 -0.77904321743E+02  0.99101082017E+00  0.83805095680E+02  0.00000000000E+00 0. -1.
</event>
<event>
 6    1  0.4069520E-005  0.1544243E+03  0.7818608E-02  0.1204883E+00
          2   -1    0    0  502    0  0.00000000000E+00  0.00000000000E+00  0.12102213670E+04  0.12102213670E+04  0.00000000000E+00 0.  1.
          1   -1    0    0  501    0 -0.00000000000E+00 -0.00000000000E+00 -0.13439369255E+03  0.13439369255E+03  0.00000000000E+00 0. -1.
          2    1    1    2  501    0  0.10807374559E+03  0.61350277379E+02  0.52558954098E+03  0.54008162032E+03  0.00000000000E+00 0.  1.
          1    1    1    2  502    0 -0.23349341922E+02 -0.52141471981E+01 -0.11607763234E+03  0.11851749166E+03  0.00000000000E+00 0. -1.
         22    1    1    2    0    0 -0.77285373762E+02 -0.89642584570E+02  0.59756666613E+03  0.60917546113E+03  0.00000000000E+00 0.  1.
         22    1    1    2    0    0 -0.74390299014E+01  0.33506454389E+02  0.68749099675E+02  0.76840486449E+02  0.00000000000E+00 0.  1.
</event>
<event>
 6    1  0.4069520E-005  0.1166755E+03  0.7818608E-02  0.1307205E+00
          2   -1    0    0  502    0  0.00000000000E+00  0.00000000000E+00  0.37129639298E+02  0.37129639298E+02  0.00000000000E+00 0. -1.
          1   -1    0    0  501    0 -0.00000000000E+00 -0.00000000000E+00 -0.65774810232E+03  0.65774810232E+03  0.00000000000E+00 0. -1.
          2    1    1    2  501    0 -0.16185766203E+02  0.60414624527E+02 -0.18415632464E+03  0.19448768030E+03  0.00000000000E+00 0. -1.
          1    1    1    2  502    0  0.40031843728E+02 -0.61728235287E+02 -0.31242869900E+03  0.32097447796E+03  0.00000000000E+00 0. -1.
         22    1    1    2    0    0 -0.57530674351E+02 -0.16588585455E+02 -0.12775348603E+03  0.14108831579E+03  0.00000000000E+00 0. -1.
         22    1    1    2    0    0  0.33684596827E+02  0.17902196216E+02  0.37200466402E+01  0.38327267574E+02  0.00000000000E+00 0.  1.
</event>
<event>
 6    1  0.4069520E-005  0.1589973E+03  0.7818608E-02  0.1199689E+00
          2   -1    0    0  502    0  0.00000000000E+00  0.00000000000E+00  0.18808958244E+04  0.18808958244E+04  0.00000000000E+00 0.  1.
          1   -1    0    0  501    0 -0.00000000000E+00 -0.00000000000E+00 -0.63018008748E+02  0.63018008748E+02  0.00000000000E+00 0.  1.
          2    1    1    2  501    0  0.87116962622E+02 -0.75500185458E+02  0.85255207303E+02  0.14338093860E+03  0.00000000000E+00 0.  1.
          1    1    1    2  502    0 -0.15458127834E+03  0.21287903886E+03  0.12686227029E+04  0.12956143018E+04  0.00000000000E+00 0.  1.
         22    1    1    2    0    0  0.39831951292E+02 -0.12176218862E+03  0.45386546378E+03  0.47159990896E+03  0.00000000000E+00 0.  1.
         22    1    1    2    0    0  0.27632364427E+02 -0.15616664790E+02  0.10134441749E+02  0.33318683835E+02  0.00000000000E+00 0. -1.
</event>
<event>
 6    1  0.4069520E-005  0.1117429E+03  0.7818608E-02  0.1265689E+00
          2   -1    0    0  502    0  0.00000000000E+00  0.00000000000E+00  0.53231235283E+03  0.53231235283E+03  0.00000000000E+00 0.  1.
          1   -1    0    0  501    0 -0.00000000000E+00 -0.00000000000E+00 -0.59671864457E+02  0.59671864457E+02  0.00000000000E+00 0. -1.
          2    1    1    2  501    0  0.15773172734E+02  0.56569363299E+02  0.85574096298E+02  0.10378733930E+03  0.00000000000E+00 0.  1.
          1    1    1    2  502    0 -0.26158407539E+02  0.16178129777E+02 -0.32841654111E+02  0.44995204331E+02  0.00000000000E+00 0. -1.
         22    1    1    2    0    0 -0.17520765631E+02  0.28516378085E+02  0.14737037795E+03  0.15112309335E+03  0.00000000000E+00 0.  1.
         22    1    1    2    0    0  0.27906000436E+02 -0.10126387116E+03  0.27253766824E+03  0.29207858030E+03  0.00000000000E+00 0.  1.
</event>
<event>
 6    1  0.4069520E-005  0.1899580E+03  0.7818608E-02  0.1248023E+00
          2   -1    0    0  502    0  0.00000000000E+00  0.00000000000E+00  0.80623288847E+02  0.80623288847E+02  0.00000000000E+00 0. -1.
          1   -1    0    0  501    0 -0.00000000000E+00 -0.00000000000E+00 -0.43106186561E+03  0.43106186561E+03  0.00000000000E+00 0.  1.
          2    1    1    2  501    0  0.82046210070E+02  0.15992691277E+02 -0.19550655431E+02  0.85846228158E+02  0.00000000000E+00 0. -1.
          1    1    1    2  502    0 -0.13623073426E+02  0.16796618977E+02 -0.25856817845E+03  0.25947103393E+03  0.00000000000E+00 0.  1.
         22    1    1    2    0    0 -0.94159337213E+02 -0.21140787452E+02 -0.90885594716E+02  0.13256358854E+03  0.00000000000E+00 0.  1.
         22    1    1    2    0    0  0.25736200570E+02 -0.11648522801E+02  0.18565851840E+02  0.33804303835E+02  0.00000000000E+00 0. -1.
</event>
<event>
 6    1  0.4069520E-005  0.1037497E+03  0.7818608E-02  0.1320655E+00
          2   -1    0    0  502    0  0.00000000000E+00  0.00000000000E+00  0.86007890490E+02  0.86007890490E+02  0.00000000000E+00 0. -1.
          1   -1    0    0  501    0 -0.00000000000E+00 -0.00000000000E+00 -0.78650880343E+03  0.78650880343E+03  0.00000000000E+00 0.  1.
          2    1    1    2  501    0 -0.21664612966E+02 -0.27221018427E+02 -0.64928893256E+02  0.73662069470E+02  0.00000000000E+00 0. -1.
          1    1    1    2  502    0  0.42753065068E+02  0.14415108135E+02 -0.66743241825E+03  0.66895564341E+03  0.00000000000E+00 0.  1.
         22    1    1    2    0    0 -0.23148682222E+02  0.55322057784E+02 -0.19622042745E+02  0.63098463749E+02  0.00000000000E+00 0.  1.
         22    1    1    2    0    0  0.20602301192E+01 -0.42516147491E+02  0.51482441319E+02  0.66800517287E+02  0.00000000000E+00 0. -1.
</event>
<event>
 6    1  0.4069520E-005  0.1923727E+03  0.7818608E-02  0.1253066E+00
          2   -1    0    0  502    0  0.00000000000E+00  0.00000000000E+00  0.58203535972E+03  0.58203535972E+03  0.00000000000E+00 0.  1.
          1   -1    0    0  501    0 -0.00000000000E+00 -0.00000000000E+00 -0.16228366978E+03  0.16228366978E+03  0.00000000000E+00 0.  1.
          2    1    1    2  501    0  0.15818956612E+03  0.27628962427E+02 -0.74331085725E+02  0.17695312571E+03  0.00000000000E+00 0.  1.
          1    1    1    2  502    0 -0.11255977556E+03 -0.47487448904E+02  0.34539469628E+03  0.36636355864E+03  0.00000000000E+00 0.  1.
         22    1    1    2    0    0  0.12127824163E+02 -0.20538756467E+02 -0.11138197052E+02  0.26324590589E+02  0.00000000000E+00 0. -1.
         22    1    1    2    0    0 -0.57757614724E+02  0.40397242944E+02  0.15982627644E+03  0.17467775455E+03  0.00000000000E+00 0. -1.
</event>
<event>
 6    1  0.4069520E-005  0.8763791E+02  0.7818608E-02  0.1310405E+00
          2   -1    0    0  502    0  0.00000000000E+00  0.00000000000E+00  0.15901119502E+03  0.15901119502E+03  0.00000000000E+00 0. -1.
          1   -1    0    0  501    0 -0.00000000000E+00 -0.00000000000E+00 -0.16969842906E+03  0.16969842906E+03  0.00000000000E+00 0. -1.
          2    1    1    2  501    0  0.11095628569E+02 -0.24148649717E+02 -0.96922713353E+01  0.28287990034E+02  0.00000000000E+00 0. -1.
          1    1    1    2  502    0 -0.29899351020E+02  0.71954352097E+02 -0.10274982672E+03  0.12895319643E+03  0.00000000000E+00 0. -1.
         22    1    1    2    0    0 -0.80633063508E+01  0.68015440207E+01 -0.27036714822E+02  0.29021748030E+02  0.00000000000E+00 0. -1.
         22    1    1    2    0    0  0.26867028801E+02 -0.54607246401E+02  0.12879157884E+03  0.14244668959E+03  0.00000000000E+00 0. -1.
</event>
<event>
 6    1  0.4069520E-005  0.1458203E+03  0.7818608E-02  0.1293507E+00
          2   -1    0    0  502    0  0.00000000000E+00  0.00000000000E+00  0.10598606337E+03  0.10598606337E+03  0.00000000000E+00 0. -1.
          1   -1    0    0  501    0 -0.00000000000E+00 -0.00000000000E+00 -0.32493568829E+04  0.32493568829E+04  0.00000000000E+00 0. -1.
          2    1    1    2  501    0 -0.30143168880E+02  0.53751354786E+02 -0.10168498659E+03  0.11890187244E+03  0.00000000000E+00 0. -1.
          1    1    1    2  502    0  0.38020875892E+02 -0.13329251700E+03 -0.30827881820E+04  0.30859026973E+04  0.00000000000E+00 0. -1.
         22    1    1    2    0    0  0.15398436082E+01  0.56219962712E+02 -0.37774118618E+02  0.67749091234E+02  0.00000000000E+00 0. -1.
         22    1    1    2    0    0 -0.94175506198E+01  0.23321199506E+02  0.78876467683E+02  0.82789285298E+02  0.00000000000E+00 0.  1.
</event>
<event>
 6    1  0.4069520E-005  0.6471260E+02  0.7818608E-02  0.1453363E+00
          2   -1    0    0  502    0  0.00000000000E+00  0.00000000000E+00  0.53649688313E+03  0.53649688313E+03  0.00000000000E+00 0. -1.
          1   -1    0    0  501    0 -0.00000000000E+00 -0.00000000000E+00 -0.72534716378E+02  0.72534716378E+02  0.00000000000E+00 0. -1.
          2    1    1    2  501    0  0.12119553385E+02 -0.17857211327E+02 -0.11708302262E+02  0.24552961379E+02  0.00000000000E+00 0. -1.
          1    1    1    2  502    0 -0.94648043017E+01  0.48046859504E+02  0.44736929527E+03  0.45004151984E+03  0.00000000000E+00 0. -1.
         22    1    1    2    0    0 -0.18083055958E+02  0.96352157568E+01  0.71088272533E+02  0.73982273466E+02  0.00000000000E+00 0.  1.
         22    1    1    2    0    0  0.15428306875E+02 -0.39824863934E+02 -0.42787098787E+02  0.60454844826E+02  0.00000000000E+00 0. -1.
</event>
<event>
 6    1  0.4069520E-005  0.1704550E+03  0.7818608E-02  0.1210073E+00
          2   -1    0    0  502    0  0.00000000000E+00  0.00000000000E+00  0.30566629457E+02  0.30566629457E+02  0.00000000000E+00 0. -1.
          1   -1    0    0  501    0 -0.00000000000E+00 -0.00000000000E+00 -0.17841810632E+04  0.17841810632E+04  0.00000000000E+00 0.  1.
          2    1    1    2  501    0 -0.54198044561E+02  0.79930710344E+02 -0.36579693536E+03  0.37833020552E+03  0.00000000000E+00 0. -1.
          1    1    1    2  502    0  0.13044053307E+03 -0.32168866222E+01 -0.10762853963E+04  0.10841657324E+04  0.00000000000E+00 0.  1.
         22    1    1    2    0    0  0.71564693682E+00 -0.83132759241E+02 -0.20002662859E+03  0.21661537331E+03  0.00000000000E+00 0. -1.
         22    1    1    2    0    0 -0.76958135451E+02  0.64189355188E+01 -0.11150547347E+03  0.13563638140E+03  0.00000000000E+00 0. -1.
</event>
<event>
 6    1  0.4069520E-005  0.1438123E+03  0.7818608E-02  0.1283216E+00
          2   -1    0    0  502    0  0.00000000000E+00  0.00000000000E+00  0.91460809291E+02  0.91460809291E+02  0.00000000000E+00 0. -1.
          1   -1    0    0  501    0 -0.00000000000E+00 -0.00000000000E+00 -0.12159043987E+04  0.12159043987E+04  0.00000000000E+00 0. -1.
          2    1    1    2  501    0 -0.21011705015E+02 -0.59295281271E+01  0.11642464459E+01  0.21863360246E+02  0.00000000000E+00 0. -1.
          1    1    1    2  502    0  0.11131276643E+03  0.81656703755E+02 -0.11010403329E+04  0.11096612834E+04  0.00000000000E+00 0. -1.
         22    1    1    2    0    0 -0.14855240215E+01  0.31773892220E+02  0.76660736103E+01  0.32719347380E+02  0.00000000000E+00 0. -1.
         22    1    1    2    0    0 -0.88815537394E+02 -0.10750106785E+03 -0.32233576512E+02  0.14312121690E+03  0.00000000000E+00 0. -1.
</event>
<event>
 6    1  0.4069520E-005  0.6543613E+02  0.7818608E-02  0.1377447E+00
          2   -1    0    0  502    0  0.00000000000E+00  0.00000000000E+00  0.63958888041E+03  0.63958888041E+03  0.00000000000E+00 0.  1.
          1   -1    0    0  501    0 -0.00000000000E+00 -0.00000000000E+00 -0.32940390015E+03  0.32940390015E+03  0.00000000000E+00 0. -1.
          2    1    1    2  501    0  0.27073525114E+01 -0.20980939352E+02  0.17745386119E+03  0.17871038701E+03  0.00000000000E+00 0.  1.
          1    1    1    2  502    0  0.58209805244E+02  0.70730618341E+01 -0.31510840677E+03  0.32051788975E+03  0.00000000000E+00 0. -1.
         22    1    1    2    0    0  0.13016478527E+02 -0.38473036113E+02  0.23433789747E+03  0.23783156521E+03  0.00000000000E+00 0.  1.
         22    1    1    2    0    0 -0.73933636283E+02  0.52380913632E+02  0.21350162838E+03  0.23193293860E+03  0.00000000000E+00 0.  1.
</event>
<event>
 6    1  0.4069520E-005  0.8556274E+02  0.7818608E-02  0.1378721E+00
          2   -1    0    0  502    0  0.00000000000E+00  0.00000000000E+00  0.66478172336E+02  0.66478172336E+02  0.00000000000E+00 0. -1.
          1   -1    0    0  501    0 -0.00000000000E+00 -0.00000000000E+00 -0.57150834628E+03  0.57150834628E+03  0.00000000000E+00 0.  1.
          2    1    1    2  501    0 -0.39368983478E+01 -0.30650796685E+02 -0.66183474094E+02  0.73042609135E+02  0.00000000000E+00 0. -1.
          1    1    1    2  502    0  0.19947551776E+02 -0.39792781842E+01 -0.43250330137E+03  0.43298134506E+03  0.00000000000E+00 0.  1.
         22    1    1    2    0    0 -0.24994823948E+02 -0.13847050921E+02  0.49694261901E+02  0.57323657501E+02  0.00000000000E+00 0. -1.
         22    1    1    2    0    0  0.89841705195E+01  0.48477125790E+02 -0.56037660379E+02  0.74638906915E+02  0.00000000000E+00 0. -1.
</event>
<event>
 6    1  0.4069520E-005  0.1088801E+03  0.7818608E-02  0.1312029E+00
          2   -1    0    0  502    0  0.00000000000E+00  0.00000000000E+00  0.50114040954E+03  0.50114040954E+03  0.00000000000E+00 0. -1.
          1   -1    0    0  501    0 -0.00000000000E+00 -0.00000000000E+00 -0.40419875180E+02  0.40419875180E+02  0.00000000000E+00 0. -1.
          2    1    1    2  501    0 -0.79109938701E+02 -0.24849953601E+02  0.47885667346E+02  0.95754580739E+02  0.00000000000E+00 0. -1.
          1    1    1    2  502    0  0.22171488021E+02 -0.12045796325E+02  0.54462095835E+02  0.60023295252E+02  0.00000000000E+00 0. -1.
         22    1    1    2    0    0 -0.33698221623E+02  0.26715042294E+02  0.60267820021E+02  0.74036975596E+02  0.00000000000E+00 0.  1.
         22    1    1    2    0    0  0.90636672304E+02  0.10180707632E+02  0.29810495116E+03  0.31174543313E+03  0.00000000000E+00 0. -1.
</event>
<event>
 6    1  0.4069520E-005  0.1376177E+03  0.7818608E-02  0.1236716E+00
          2   -1    0    0  502    0  0.00000000000E+00  0.00000000000E+00  0.10076491144E+02  0.10076491144E+02  0.00000000000E+00 0.  1.
          1   -1    0    0  501    0 -0.00000000000E+00 -0.00000000000E+00 -0.32766294424E+04  0.32766294424E+04  0.00000000000E+00 0.  1.
          2    1    1    2  501    0  0.58130607732E+02 -0.60928131417E+02 -0.91587177425E+03  0.91973502250E+03  0.00000000000E+00 0.  1.
          1    1    1    2  502    0 -0.49418913093E+02  0.22204947736E+02 -0.18103143186E+04  0.18111248496E+04  0.00000000000E+00 0.  1.
         22    1    1    2    0    0  0.30573922382E+02 -0.26470896063E+02 -0.84624243803E+02  0.93790914845E+02  0.00000000000E+00 0. -1.
         22    1    1    2    0    0 -0.39285617022E+02  0.65194079743E+02 -0.45574261466E+03  0.46205514666E+03  0.00000000000E+00 0.  1.
</event>
<event>
 6    1  0.4069520E-005  0.9341894E+02  0.7818608E-02  0.1316002E+00
          2   -1    0    0  502    0  0.00000000000E+00  0.00000000000E+00  0.31479243997E+03  0.31479243997E+03  0.00000000000E+00 0. -1.
          1   -1    0    0  501    0 -0.00000000000E+00 -0.00000000000E+00 -0.94622612781E+02  0.94622612781E+02  0.00000000000E+00 0. -1.
          2    1    1    2  501    0  0.46537615841E+02 -0.46890592751E+02 -0.50715461393E+02  0.83285865554E+02  0.00000000000E+00 0. -1.
          1    1    1    2  502    0 -0.40504461966E+02  0.17232309804E+02  0.11031688825E+03  0.11877449126E+03  0.00000000000E+00 0. -1.
         22    1    1    2    0    0  0.10701957836E+02  0.61730964528E+02  0.15927623756E+03  0.17115537892E+03  0.00000000000E+00 0.  1.
         22    1    1    2    0    0 -0.16735111711E+02 -0.32072681582E+02  0.12921627725E+01  0.36199317016E+02  0.00000000000E+00 0. -1.
</event>
<event>
 6    1  0.4069520E-005  0.9720902E+02  0.7818608E-02  0.1291214E+00
          2   -1    0    0  502    0  0.00000000000E+00  0.00000000000E+00  0.11473943068E+03  0.11473943068E+03  0.00000000000E+00 0. -1.
          1   -1    0    0  501    0 -0.00000000000E+00 -0.00000000000E+00 -0.12948656004E+03  0.12948656004E+03  0.00000000000E+00 0. -1.
          2    1    1    2  501    0 -0.12878833790E+02  0.32745454997E+02 -0.18399375417E+02  0.39707256245E+02  0.00000000000E+00 0. -1.
          1    1    1    2  502    0 -0.35909184417E+02 -0.40446235091E+02 -0.31125814231E+02  0.62403395501E+02  0.00000000000E+00 0. -1.
         22    1    1    2    0    0  0.47706178109E+02  0.57500840359E+02  0.50151004540E+02  0.89985272840E+02  0.00000000000E+00 0. -1.
         22    1    1    2    0    0  0.10818400974E+01 -0.49800060265E+02 -0.15372944258E+02  0.52130066138E+02  0.00000000000E+00 0. -1.
</event>
<event>
 6    1  0.4069520E-005  0.1423848E+03  0.7818608E-02  0.1212337E+00
          2   -1    0    0  502    0  0.00000000000E+00  0.00000000000E+00  0.44833141295E+03  0.44833141295E+03  0.00000000000E+00 0. -1.
          1   -1    0    0  501    0 -0.00000000000E+00 -0.00000000000E+00 -0.13508227253E+03  0.13508227253E+03  0.00000000000E+00 0.  1.
          2    1    1    2  501    0  0.74084601812E+02 -0.37963423330E+02  0.10936307108E+03  0.13744100936E+03  0.00000000000E+00 0. -1.
          1    1    1    2  502    0 -0.13994234556E+03 -0.78384561862E+02 -0.14778890149E+02  0.16107890990E+03  0.00000000000E+00 0.  1.
         22    1    1    2    0    0 -0.51523698655E-02 -0.13651799774E+02 -0.77007516189E+01  0.15673966923E+02  0.00000000000E+00 0.  1.
         22    1    1    2    0    0  0.65862896118E+02  0.12999978497E+03  0.22636571111E+03  0.26921979931E+03  0.00000000000E+00 0.  1.
</event>
<event>
 6    1  0.4069520E-005  0.1745505E+03  0.7818608E-02  0.1245622E+00
          2   -1    0    0  502    0  0.00000000000E+00  0.00000000000E+00  0.44001718459E+02  0.44001718459E+02  0.00000000000E+00 0.  1.
          1   -1    0    0  501    0 -0.00000000000E+00 -0.00000000000E+00 -0.39556601882E+03  0.39556601882E+03  0.00000000000E+00 0.  1.
          2    1    1    2  501    0  0.59609834502E+02  0.62330763220E+01 -0.20828084815E+03  0.21673277398E+03  0.00000000000E+00 0.  1.
          1    1    1    2  502    0 -0.11907146429E+02  0.20899872970E+02 -0.61382728762E+02  0.65927416273E+02  0.00000000000E+00 0.  1.
         22    1    1    2    0    0  0.37751217666E+02 -0.29021055517E+01 -0.27952732560E+01  0.37965645055E+02  0.00000000000E+00 0.  1.
         22    1    1    2    0    0 -0.85453905739E+02 -0.24230843740E+02 -0.79105450191E+02  0.11894190197E+03  0.00000000000E+00 0.  1.
</event>
<event>
 6    1  0.4069520E-005  0.2336125E+03  0.7818608E-02  0.1179678E+00
          2   -1    0    0  502    0  0.00000000000E+00  0.00000000000E+00  0.12827406125E+03  0.12827406125E+03  0.00000000000E+00 0.  1.
          1   -1    0    0  501    0 -0.00000000000E+00 -0.00000000000E+00 -0.88936871698E+03  0.88936871698E+03  0.00000000000E+00 0.  1.
          2    1    1    2  501    0 -0.99001475289E+02 -0.22060816430E+03 -0.47060151222E+03  0.52908887492E+03  0.00000000000E+00 0.  1.
          1    1    1    2  502    0  0.83898595967E+02  0.16830479068E+03 -0.29821557582E+03  0.35255922429E+03  0.00000000000E+00 0.  1.
         22    1    1    2    0    0 -0.23082248610E+02  0.23656721127E+01 -0.47150547663E+02  0.52550554234E+02  0.00000000000E+00 0. -1.
         22    1    1    2    0    0  0.38185127932E+02  0.49937701510E+02  0.54872979983E+02  0.83444124775E+02  0.00000000000E+00 0.  1.
</event>
<event>
 6    1  0.4069520E-005  0.1009055E+03  0.7818608E-02  0.1282268E+00
          2   -1    0    0  502    0  0.00000000000E+00  0.00000000000E+00  0.42287265639E+03  0.42287265639E+03  0.00000000000E+00 0.  1.
          1   -1    0    0  501    0 -0.00000000000E+00 -0.00000000000E+00 -0.15756065973E+03  0.15756065973E+03  0.00000000000E+00 0.  1.
          2    1    1    2  501    0  0.25062520704E+02 -0.48793412059E+02  0.25643692713E+02  0.60551845392E+02  0.00000000000E+00 0.  1.
          1    1    1    2  502    0 -0.11298304796E+02 -0.36270456760E+02 -0.12214175427E+03  0.12791327476E+03  0.00000000000E+00 0.  1.
         22    1    1    2    0    0 -0.43277814401E+02  0.89769071580E+02  0.34172494283E+03  0.35595981793E+03  0.00000000000E+00 0.  1.
         22    1    1    2    0    0  0.29513598493E+02 -0.47052027602E+01  0.20085115381E+02  0.36008378037E+02  0.00000000000E+00 0.  1.
</event>
<event>
 6    1  0.4069520E-005  0.2383759E+03  0.7818608E-02  0.1125934E+00
          2   -1    0    0  502    0  0.00000000000E+00  0.00000000000E+00  0.17684253746E+04  0.17684253746E+04  0.00000000000E+00 0.  1.
          1   -1    0    0  501    0 -0.00000000000E+00 -0.00000000000E+00 -0.18762192774E+03  0.18762192774E+03  0.00000000000E+00 0. -1.
          2    1    1    2  501    0  0.16778990251E+03 -0.15220967356E+03  0.86538042093E+03  0.89454150772E+03  0.00000000000E+00 0.  1.
          1    1    1    2  502    0 -0.41372370112E+02  0.32459545542E+01 -0.15536456145E+03  0.16081155489E+03  0.00000000000E+00 0. -1.
         22    1    1    2    0    0 -0.11744045520E+03  0.16118076631E+03  0.85796580772E+03  0.88083870667E+03  0.00000000000E+00 0.  1.
         22    1    1    2    0    0 -0.89770771953E+01 -0.12217047299E+02  0.12821779671E+02  0.19855533073E+02  0.00000000000E+00 0. -1.
</event>
<event>
 6    1  0.4069520E-005  0.2551256E+03  0.7818608E-02  0.1143222E+00
          2   -1    0    0  502    0  0.00000000000E+00  0.00000000000E+00  0.53526597786E+03  0.53526597786E+03  0.00000000000E+00 0. -1.
          1   -1    0    0  501    0 -0.00000000000E+00 -0.00000000000E+00 -0.90325785078E+03  0.90325785078E+03  0.00000000000E+00 0.  1.
          2    1    1    2  501    0  0.11444462962E+03  0.25959019832E+03  0.37903410604E+03  0.47344640442E+03  0.00000000000E+00 0. -1.
          1    1    1    2  502    0 -0.12924011504E+03 -0.18064059921E+03 -0.78167624011E+03  0.81262031588E+03  0.00000000000E+00 0.  1.
         22    1    1    2    0    0  0.76830015768E+01  0.33373867759E+02 -0.14017665417E+01  0.34275479746E+02  0.00000000000E+00 0.  1.
         22    1    1    2    0    0  0.71124838406E+01 -0.11232346687E+03  0.36052027694E+02  0.11818162860E+03  0.00000000000E+00 0. -1.
</event>
<event>
 6    1  0.4069520E-005  0.2950536E+03  0.7818608E-02  0.1220773E+00
          2   -1    0    0  502    0  0.00000000000E+00  0.00000000000E+00  0.24945066544E+03  0.24945066544E+03  0.00000000000E+00 0.  1.
          1   -1    0    0  501    0 -0.00000000000E+00 -0.00000000000E+00 -0.14046559715E+04  0.14046559715E+04  0.00000000000E+00 0.  1.
          2    1    1    2  501    0  0.11093540861E+03  0.25602237282E+02  0.44767182951E+02  0.12233658531E+03  0.00000000000E+00 0.  1.
          1    1    1    2  502    0 -0.45969310567E+02 -0.19060241532E+03 -0.12841369897E+04  0.12990189631E+04  0.00000000000E+00 0.  1.
         22    1    1    2    0    0  0.91483486275E+01  0.89264672423E+01  0.56310689561E+02  0.57743119581E+02  0.00000000000E+00 0.  1.
         22    1    1    2    0    0 -0.74114446669E+02  0.15607371079E+03  0.27853811099E+02  0.17500796896E+03  0.00000000000E+00 0.  1.
</event>
<event>
 6    1  0.4069520E-005  0.8666367E+02  0.7818608E-02  0.1326148E+00
          2   -1    0    0  502    0  0.00000000000E+00  0.00000000000E+00  0.80599604553E+02  0.80599604553E+02  0.00000000000E+00 0. -1.
          1   -1    0    0  501    0 -0.00000000000E+00 -0.00000000000E+00 -0.13649925607E+04  0.13649925607E+04  0.00000000000E+00 0.  1.
          2    1    1    2  501    0 -0.17162962550E+02  0.34610830100E+02  0.22723873690E+02  0.44820210611E+02  0.00000000000E+00 0. -1.
          1    1    1    2  502    0  0.83727926704E+02 -0.43084254911E+01 -0.12429829167E+04  0.12458071518E+04  0.00000000000E+00 0.  1.
         22    1    1    2    0    0 -0.26433025278E+02 -0.60736729779E+02 -0.78380894106E+02  0.10262173128E+03  0.00000000000E+00 0.  1.
         22    1    1    2    0    0 -0.40131938875E+02  0.30434325171E+02  0.14246981034E+02  0.52343071510E+02  0.00000000000E+00 0.  1.
</event>
<event>
 6    1  0.4069520E-005  0.5632139E+02  0.7818608E-02  0.1420332E+00
          2   -1    0    0  502    0  0.00000000000E+00  0.00000000000E+00  0.76162301979E+03  0.76162301979E+03  0.00000000000E+00 0. -1.
          1   -1    0    0  501    0 -0.00000000000E+00 -0.00000000000E+00 -0.35405907470E+02  0.35405907470E+02  0.00000000000E+00 0. -1.
          2    1    1    2  501    0  0.15821198592E+02 -0.17949862044E+02  0.17252931138E+01  0.23989258193E+02  0.00000000000E+00 0. -1.
          1    1    1    2  502    0 -0.27714914934E+02  0.35177122989E+02  0.56665554317E+03  0.56842242311E+03  0.00000000000E+00 0. -1.
         22    1    1    2    0    0  0.23008200785E+02 -0.61826550098E+02  0.37684023341E+02  0.75973582353E+02  0.00000000000E+00 0. -1.
         22    1    1    2    0    0 -0.11114484443E+02  0.44599289154E+02  0.12015225270E+03  0.12864366360E+03  0.00000000000E+00 0. -1.
</event>
<event>
 6    1  0.4069520E-005  0.1076025E+03  0.7818608E-02  0.1272468E+00
          2   -1    0    0  502    0  0.00000000000E+00  0.00000000000E+00  0.45286850645E+03  0.45286850645E+03  0.00000000000E+00 0.  1.
          1   -1    0    0  501    0 -0.00000000000E+00 -0.00000000000E+00 -0.63291996318E+03  0.63291996318E+03  0.00000000000E+00 0. -1.
          2    1    1    2  501    0 -0.14910739861E+02 -0.69166829599E+02  0.10589332193E+03  0.12735688481E+03  0.00000000000E+00 0.  1.
          1    1    1    2  502    0  0.15713550405E+02  0.29609918708E+02 -0.60905242794E+03  0.60997419858E+03  0.00000000000E+00 0. -1.
         22    1    1    2    0    0  0.19755315646E+02 -0.40972123214E+02  0.14384119318E+03  0.15086177857E+03  0.00000000000E+00 0.  1.
         22    1    1    2    0    0 -0.20558126191E+02  0.80529034104E+02  0.17926645611E+03  0.19759560768E+03  0.00000000000E+00 0.  1.
</event>
<event>
 6    1  0.4069520E-005  0.1196650E+03  0.7818608E-02  0.1350344E+00
          2   -1    0    0  502    0  0.00000000000E+00  0.00000000000E+00  0.18162618167E+02  0.18162618167E+02  0.00000000000E+00 0.  1.
          1   -1    0    0  501    0 -0.00000000000E+00 -0.00000000000E+00 -0.13482246791E+04  0.13482246791E+04  0.00000000000E+00 0.  1.
          2    1    1    2  501    0 -0.47320678624E+02  0.27036062542E+02 -0.54505579691E+03  0.54777369145E+03  0.00000000000E+00 0.  1.
          1    1    1    2  502    0 -0.23666893786E+02 -0.72454004127E+01 -0.49161777538E+03  0.49224044405E+03  0.00000000000E+00 0.  1.
         22    1    1    2    0    0  0.54508548915E+02 -0.18546494156E+02 -0.30220600895E+03  0.30764204231E+03  0.00000000000E+00 0.  1.
         22    1    1    2    0    0  0.16479023495E+02 -0.12441679729E+01  0.88175203505E+01  0.18731119412E+02  0.00000000000E+00 0.  1.
</event>
<event>
 6    1  0.4069520E-005  0.2090952E+03  0.7818608E-02  0.1142714E+00
          2   -1    0    0  502    0  0.00000000000E+00  0.00000000000E+00  0.12904406793E+04  0.12904406793E+04  0.00000000000E+00 0.  1.
          1   -1    0    0  501    0 -0.00000000000E+00 -0.00000000000E+00 -0.25273230865E+03  0.25273230865E+03  0.00000000000E+00 0. -1.
          2    1    1    2  501    0  0.11277378194E+03  0.13700210094E+03  0.51011268985E+03  0.54009486009E+03  0.00000000000E+00 0.  1.
          1    1    1    2  502    0  0.97065353213E+02 -0.57442413859E+02 -0.20136009754E+03  0.23079688599E+03  0.00000000000E+00 0. -1.
         22    1    1    2    0    0  0.37883641009E+01  0.19146313951E+02  0.48406778023E+02  0.52193382713E+02  0.00000000000E+00 0. -1.
         22    1    1    2    0    0 -0.21362749925E+03 -0.98706001028E+02  0.68054900036E+03  0.72008785920E+03  0.00000000000E+00 0.  1.
</event>
<event>
 6    1  0.4069520E-005  0.7045530E+02  0.7818608E-02  0.1374073E+00
          2   -1    0    0  502    0  0.00000000000E+00  0.00000000000E+00  0.33337804202E+03  0.33337804202E+03  0.00000000000E+00 0. -1.
          1   -1    0    0  501    0 -0.00000000000E+00 -0.00000000000E+00 -0.15908343892E+04  0.15908343892E+04  0.00000000000E+00 0. -1.
          2    1    1    2  501    0  0.24910518921E+02  0.19878348350E+02  0.10229422379E+03  0.10714378613E+03  0.00000000000E+00 0. -1.
          1    1    1    2  502    0 -0.46582536525E+02 -0.31777491295E+02 -0.15691235916E+04  0.15701364869E+04  0.00000000000E+00 0. -1.
         22    1    1    2    0    0 -0.50617693609E+02  0.19962971269E+02  0.61350372268E+02  0.82003288383E+02  0.00000000000E+00 0.  1.
         22    1    1    2    0    0  0.72289711212E+02 -0.80638283243E+01  0.14802264837E+03  0.16492886984E+03  0.00000000000E+00 0. -1.
</event>
<event>
 6    1  0.4069520E-005  0.8126298E+02  0.7818608E-02  0.1327124E+00
          2   -1    0    0  502    0  0.00000000000E+00  0.00000000000E+00  0.40475962667E+02  0.40475962667E+02  0.00000000000E+00 0.  1.
          1   -1    0    0  501    0 -0.00000000000E+00 -0.00000000000E+00 -0.11000576886E+04  0.11000576886E+04  0.00000000000E+00 0. -1.
          2    1    1    2  501    0  0.55352248897E+01 -0.33274504869E+02 -0.50038649667E+02  0.60346481665E+02  0.00000000000E+00 0.  1.
          1    1    1    2  502    0  0.20572306449E+02  0.85928276697E+00 -0.92684350642E+03  0.92707218897E+03  0.00000000000E+00 0. -1.
         22    1    1    2    0    0  0.24640343182E+02 -0.33333990207E+02 -0.47122020223E+02  0.62759749881E+02  0.00000000000E+00 0.  1.
         22    1    1    2    0    0 -0.50747874521E+02  0.65749212309E+02 -0.35577549623E+02  0.90355230755E+02  0.00000000000E+00 0.  1.
</event>
<event>
 6    1  0.4069520E-005  0.4645393E+03  0.7818608E-02  0.1122033E+00
          2   -1    0    0  502    0  0.00000000000E+00  0.00000000000E+00  0.77907215767E+03  0.77907215767E+03  0.00000000000E+00 0. -1.
          1   -1    0    0  501    0 -0.00000000000E+00 -0.00000000000E+00 -0.12842952472E+03  0.12842952472E+03  0.00000000000E+00 0. -1.
          2    1    1    2  501    0 -0.79095386739E+02  0.88587150323E+02 -0.31745626547E+02  0.12292903730E+03  0.00000000000E+00 0. -1.
          1    1    1    2  502    0  0.24015875467E+02  0.21608728459E+01 -0.38179970887E+02  0.45156857982E+02  0.00000000000E+00 0. -1.
         22    1    1    2    0    0  0.56935014646E+02 -0.12196980279E+03  0.58326211766E+03  0.59859245450E+03  0.00000000000E+00 0. -1.
         22    1    1    2    0    0 -0.18555033730E+01  0.31221779622E+02  0.13730611272E+03  0.14082333261E+03  0.00000000000E+00 0.  1.
</event>
<event>
 6    1  0.4069520E-005  0.1147300E+03  0.7818608E-02  0.1256903E+00
          2   -1    0    0  502    0  0.00000000000E+00  0.00000000000E+00  0.24110008872E+03  0.24110008872E+03  0.00000000000E+00 0. -1.
          1   -1    0    0  501    0 -0.00000000000E+00 -0.00000000000E+00 -0.17119877479E+03  0.17119877479E+03  0.00000000000E+00 0.  1.
          2    1    1    2  501    0  0.19944226271E+02  0.62406228344E+02  0.36902620314E+02  0.75193835410E+02  0.00000000000E+00 0. -1.
          1    1    1    2  502    0  0.16819176832E+02  0.16065239534E+02 -0.11812978274E+03  0.12039776660E+03  0.00000000000E+00 0.  1.
         22    1    1    2    0    0 -0.59210313258E+02 -0.10054245739E+03  0.87934745991E+02  0.14610669556E+03  0.00000000000E+00 0. -1.
         22    1    1    2    0    0  0.22446910155E+02  0.22070989514E+02  0.63193730364E+02  0.70600565939E+02  0.00000000000E+00 0.  1.
</event>
<event>
 6    1  0.4069520E-005  0.8812678E+02  0.7818608E-02  0.1355156E+00
          2   -1    0    0  502    0  0.00000000000E+00  0.00000000000E+00  0.24285276344E+03  0.24285276344E+03  0.00000000000E+00 0.  1.
          1   -1    0    0  501    0 -0.00000000000E+00 -0.00000000000E+00 -0.70655623871E+02  0.70655623871E+02  0.00000000000E+00 0. -1.
          2    1    1    2  501    0  0.24325322889E+02  0.66673667928E+01  0.16788051764E+02  0.30298742476E+02  0.00000000000E+00 0.  1.
          1    1    1    2  502    0 -0.20784740094E+02  0.33815522292E+02 -0.35772535458E+02  0.53433783899E+02  0.00000000000E+00 0. -1.
         22    1    1    2    0    0 -0.23293286652E+02 -0.73094420635E+02  0.74164604953E+02  0.10670407752E+03  0.00000000000E+00 0.  1.
         22    1    1    2    0    0  0.19752703857E+02  0.32611531550E+02  0.11701701831E+03  0.12307178342E+03  0.00000000000E+00 0.  1.
</event>
<event>
 6    1  0.4069520E-005  0.4718104E+03  0.7818608E-02  0.1088030E+00
          2   -1    0    0  502    0  0.00000000000E+00  0.00000000000E+00  0.34202136089E+03  0.34202136089E+03  0.00000000000E+00 0.  1.
          1   -1    0    0  501    0 -0.00000000000E+00 -0.00000000000E+00 -0.11189997893E+04  0.11189997893E+04  0.00000000000E+00 0. -1.
          2    1    1    2  501    0 -0.75807507202E+02 -0.60050600394E+01 -0.23225818417E+03  0.24439047241E+03  0.00000000000E+00 0.  1.
          1    1    1    2  502    0  0.57538820995E+01 -0.10423598686E+03 -0.85250085588E+03  0.85886899896E+03  0.00000000000E+00 0. -1.
         22    1    1    2    0    0  0.71602461377E+02  0.85479551640E+00  0.10075287680E+03  0.12360738382E+03  0.00000000000E+00 0. -1.
         22    1    1    2    0    0 -0.15488362746E+01  0.10938625138E+03  0.20702773482E+03  0.23415429501E+03  0.00000000000E+00 0.  1.
</event>
<event>
 6    1  0.4069520E-005  0.1575143E+03  0.7818608E-02  0.1205548E+00
          2   -1    0    0  502    0  0.00000000000E+00  0.00000000000E+00  0.22866141753E+03  0.22866141753E+03  0.00000000000E+00 0. -1.
          1   -1    0    0  501    0 -0.00000000000E+00 -0.00000000000E+00 -0.30104871243E+03  0.30104871243E+03  0.00000000000E+00 0. -1.
          2    1    1    2  501    0  0.10005631693E+03  0.14373146338E+03 -0.46391561942E+01  0.17518995946E+03  0.00000000000E+00 0. -1.
          1    1    1    2  502    0  0.34529261439E+01 -0.13848734501E+03 -0.12151064458E+03  0.18427019339E+03  0.00000000000E+00 0. -1.
         22    1    1    2    0    0  0.27027161093E+01  0.41606091211E+02 -0.14153729755E+01  0.41717799330E+02  0.00000000000E+00 0.  1.
         22    1    1    2    0    0 -0.10621195919E+03 -0.46850209589E+02  0.55177878843E+02  0.12853217779E+03  0.00000000000E+00 0. -1.
</event>
<event>
 6    1  0.4069520E-005  0.1062113E+03  0.7818608E-02  0.1269537E+00
          2   -1    0    0  502    0  0.00000000000E+00  0.00000000000E+00  0.16726098854E+03  0.16726098854E+03  0.00000000000E+00 0. -1.
          1   -1    0    0  501    0 -0.00000000000E+00 -0.00000000000E+00 -0.29751018932E+03  0.29751018932E+03  0.00000000000E+00 0.  1.
          2    1    1    2  501    0 -0.20188287756E+02  0.80167078468E+02  0.66020453716E+02  0.10579710649E+03  0.00000000000E+00 0. -1.
          1    1    1    2  502    0  0.27925889715E+02 -0.50452231923E+02 -0.22115687514E+03  0.22855118999E+03  0.00000000000E+00 0.  1.
         22    1    1    2    0    0  0.22509149015E+02 -0.67595286380E+02 -0.82260044357E+01  0.71717861647E+02  0.00000000000E+00 0.  1.
         22    1    1    2    0    0 -0.30246750974E+02  0.37880439834E+02  0.33113225082E+02  0.58705019733E+02  0.00000000000E+00 0. -1.
</event>
<event>
 6    1  0.4069520E-005  0.8497151E+02  0.7818608E-02  0.1316312E+00
          2   -1    0    0  502    0  0.00000000000E+00  0.00000000000E+00  0.29417794843E+03  0.29417794843E+03  0.00000000000E+00 0. -1.
          1   -1    0    0  501    0 -0.00000000000E+00 -0.00000000000E+00 -0.21383986756E+03  0.21383986756E+03  0.00000000000E+00 0. -1.
          2    1    1    2  501    0  0.60869252052E+02 -0.18012127879E+02 -0.10186733382E+03  0.12002689821E+03  0.00000000000E+00 0. -1.
          1    1    1    2  502    0 -0.14330562006E+03  0.67033851848E+02  0.15286874194E+02  0.15894567171E+03  0.00000000000E+00 0. -1.
         22    1    1    2    0    0  0.76198381315E+02 -0.38976932349E+02  0.18704813388E+03  0.20569977870E+03  0.00000000000E+00 0. -1.
         22    1    1    2    0    0  0.62379866904E+01 -0.10044791620E+02 -0.20129593389E+02  0.23345467368E+02  0.00000000000E+00 0. -1.
</event>
